version 3
run Net1-0-20221230-18:35:51-8958
attr configname Net1
attr datetime 20221230-18:35:51
attr datetimef 20221230-183551
attr experiment Net1
attr inifile omnetpp.ini
attr iterationvars ""
attr iterationvarsd ""
attr iterationvarsf ""
attr measurement ""
attr network Net
attr processid 8958
attr repetition 0
attr replication #0
attr resultdir results
attr runnumber 0
attr seedset 0
config description "rho 0.4"
config **.source*.avgInterArrivalTime 0.5s
config **.queue*.avgServiceTime 0.2s
config network Net
config sim-time-limit 1h
config cpu-time-limit 300s

vector 0 Net.queue1 qlen:vector ETV
attr interpolationmode sample-hold
attr recordingmode vector
attr title "queue length"
vector 1 Net.queue1 queueingTime:vector ETV
attr interpolationmode none
attr recordingmode vector
attr title "queueing time at dequeue"
attr unit s
vector 2 Net.queue1 responseTime:vector ETV
attr interpolationmode none
attr recordingmode vector
attr title "response time at end of service"
attr unit s
vector 3 Net.sink1 lifetime:vector ETV
attr interpolationmode none
attr recordingmode vector
attr title "lifetime of arrived msg"
attr unit s
vector 4 Net.sink1 arrivedMsg:vector ETV
attr interpolationmode none
attr recordingmode vector
attr title "number of arrived msg"
0	0	0	0
0	24	4.02540429038	1
0	25	4.105787266065	0
0	28	4.201983859949	1
0	30	4.231176194496	2
0	31	4.324580871054	1
0	34	4.390354264917	2
0	36	4.715077439042	3
0	37	4.770467371932	2
0	39	4.962188132592	1
0	41	5.358050649306	0
0	44	5.551183039204	1
0	45	5.839882031335	0
0	48	5.878124322815	1
0	49	6.104329492101	0
0	52	6.127560327323	1
0	53	6.388351773979	0
0	76	9.640164671533	1
0	77	9.953627623146	0
0	84	10.981465365828	1
0	85	11.149919950937	0
0	116	14.949765282954	1
0	117	15.154716366727	0
0	120	15.27061263397	1
0	121	15.362047337286	0
0	124	15.373714274985	1
0	125	15.494325142993	0
0	132	16.163383612665	1
0	134	16.236022626311	2
0	135	16.269434535276	1
0	137	16.278829434287	0
0	140	16.431908031649	1
0	142	16.512976276372	2
0	143	16.56304640845	1
0	146	16.638697242409	2
0	147	16.869094269681	1
0	150	16.882975767063	2
0	151	17.177561269007	1
0	153	17.486379019432	0
0	160	18.346305492579	1
0	161	18.388342603093	0
0	172	20.036508928062	1
0	173	20.333043912884	0
0	184	22.409745869042	1
0	186	22.631447883352	2
0	187	22.651351772883	1
0	189	22.715814922057	0
0	204	24.010147864993	1
0	205	24.275654674762	0
0	252	32.294955183717	1
0	253	32.432342058026	0
0	268	35.091834775933	1
0	269	35.495499102173	0
0	292	39.363703022335	1
0	294	39.663676465656	2
0	296	39.673771529729	3
0	297	39.823420104524	2
0	299	39.843013999006	1
0	302	39.965210724162	2
0	303	40.145436758013	1
0	305	40.286840237747	0
0	356	49.811232297619	1
0	358	49.973902505384	2
0	360	49.978602880716	3
0	361	50.055820304034	2
0	363	50.215104781505	1
0	365	50.548809969629	0
0	368	50.902266706217	1
0	369	51.013458068547	0
0	396	53.474547466475	1
0	398	53.55371821959	2
0	399	53.658152032615	1
0	401	53.660499773658	0
0	404	53.975259735664	1
0	405	53.99940804331	0
0	412	54.7536874315	1
0	413	54.951111072601	0
0	416	55.03763950824	1
0	417	55.432205345059	0
0	424	55.995323616181	1
0	425	56.031230380832	0
0	452	61.598533512591	1
0	453	61.886509827649	0
0	460	62.592304040181	1
0	461	62.733841701703	0
0	468	63.298650286638	1
0	470	63.486519707841	2
0	471	63.595496649022	1
0	473	63.886133086967	0
0	492	66.663515588139	1
0	494	66.914670987269	2
0	495	67.01052878718	1
0	497	67.222456309154	0
0	500	67.396897770016	1
0	501	67.544451407414	0
0	504	67.718950124177	1
0	505	67.847648015852	0
0	516	68.835868106915	1
0	517	68.996122509811	0
0	520	69.07768595021	1
0	521	69.141161314782	0
0	532	70.8771729052	1
0	533	70.890636390242	0
0	536	70.925634282488	1
0	537	71.039777554156	0
0	540	71.144148289375	1
0	541	71.324760009934	0
0	544	71.545424282254	1
0	546	71.562525991433	2
0	547	71.620196391413	1
0	549	71.907359019321	0
0	556	73.492358777149	1
0	558	73.617399524638	2
0	559	73.624845368255	1
0	562	73.693546337265	2
0	564	73.744706644691	3
0	565	73.840554585497	2
0	567	74.024335521323	1
0	569	74.242267980988	0
0	576	75.964394481558	1
0	577	76.259573204045	0
0	580	76.349432911331	1
0	582	76.646469660493	2
0	583	76.662670199944	1
0	586	76.698910578293	2
0	587	76.712783643229	1
0	590	76.916083406265	2
0	591	77.064727936008	1
0	594	77.232814715126	2
0	595	77.421848585199	1
0	597	77.88158989169	0
0	600	78.152681107665	1
0	601	78.381013393121	0
0	608	79.346911208982	1
0	610	79.701870172594	2
0	611	79.76183278283	1
0	614	79.793139473535	2
0	615	79.843079248507	1
0	617	79.904989239707	0
0	628	81.814045888171	1
0	630	81.889441393268	2
0	632	81.906334786044	3
0	633	81.952703929261	2
0	635	81.987287424376	1
0	637	82.190879073214	0
0	644	84.164894488651	1
0	645	84.279972591675	0
0	648	84.437323052723	1
0	650	84.463279328814	2
0	651	84.506743931798	1
0	654	84.69073525121	2
0	656	84.699119134206	3
0	658	84.830283788789	4
0	659	84.867771734372	3
0	661	84.873628775128	2
0	663	85.301530446629	1
0	666	85.554180829783	2
0	667	85.734721609629	1
0	669	85.914710639166	0
0	692	88.539073126658	1
0	693	88.540156635639	0
0	700	88.944131274248	1
0	701	89.029681453492	0
0	728	93.484827271997	1
0	729	93.769725022455	0
0	740	96.68036307175	1
0	741	96.991986170142	0
0	744	97.248661319379	1
0	745	97.29896914641	0
0	764	101.134419465063	1
0	765	101.214153562332	0
0	768	101.260218771619	1
0	769	101.319075439367	0
0	772	101.383648406018	1
0	773	101.412171942074	0
0	776	101.805137793725	1
0	777	101.884358136341	0
0	780	102.105977286987	1
0	781	102.254133534626	0
0	792	104.478362723683	1
0	794	104.507398904741	2
0	795	104.560963820067	1
0	797	104.589978401299	0
0	828	110.622107063541	1
0	829	110.636188085459	0
0	844	112.598381647541	1
0	845	112.776586110841	0
0	856	114.161055206274	1
0	857	114.21891837885	0
0	876	117.247145988339	1
0	877	117.345018032955	0
0	880	117.613829824923	1
0	882	117.613857500871	2
0	883	117.76054226178	1
0	886	117.800739147779	2
0	887	118.075033186253	1
0	890	118.077824562303	2
0	891	118.211804202891	1
0	893	118.610827618063	0
0	904	120.03475753443	1
0	905	120.206631057191	0
0	908	120.365009074305	1
0	909	120.550375193584	0
0	916	121.272660607897	1
0	917	121.616025840509	0
0	940	125.125003393723	1
0	941	125.145301112467	0
0	952	126.42105221848	1
0	954	126.524231215282	2
0	955	126.531880107476	1
0	957	126.670694461675	0
0	972	128.75943908528	1
0	974	128.855569805701	2
0	975	128.856029084109	1
0	977	128.922063138958	0
0	1000	130.965149263331	1
0	1001	131.142507093999	0
0	1008	131.6208245861	1
0	1009	132.075577416093	0
0	1012	132.30799609331	1
0	1014	132.356579932494	2
0	1015	132.458240042309	1
0	1018	132.479178978815	2
0	1019	132.832571854567	1
0	1021	132.874283071942	0
0	1024	133.170837211891	1
0	1025	133.326142941703	0
0	1032	133.851994212861	1
0	1034	133.969322137489	2
0	1035	134.12088837721	1
0	1038	134.138399494911	2
0	1039	134.266962142564	1
0	1041	134.387376531163	0
0	1044	134.703858734505	1
0	1046	134.736415166898	2
0	1047	134.868344722917	1
0	1049	134.876559538553	0
0	1056	135.146627190201	1
0	1057	135.606750337072	0
0	1072	138.827673874446	1
0	1073	139.020657861881	0
0	1092	140.985099658551	1
0	1093	141.03097122546	0
0	1096	141.288739302861	1
0	1097	141.511756304295	0
0	1104	142.68308469108	1
0	1105	142.818843100939	0
0	1112	143.644624432183	1
0	1113	143.711304481196	0
0	1120	144.605781932622	1
0	1121	144.698208648647	0
0	1128	145.64454586241	1
0	1129	145.960969531162	0
0	1156	152.769200408597	1
0	1158	152.926199357629	2
0	1159	153.015867931718	1
0	1162	153.19043297178	2
0	1163	153.200160233254	1
0	1165	153.268610370296	0
0	1168	153.469936806775	1
0	1169	153.588346628539	0
0	1172	153.646735094406	1
0	1174	153.903092415721	2
0	1176	153.967382534359	3
0	1177	153.999405496006	2
0	1179	154.094329452908	1
0	1181	154.206487964906	0
0	1192	156.6228067301	1
0	1193	156.632834335737	0
0	1196	156.833303379124	1
0	1197	157.119294080831	0
0	1204	157.875931348937	1
0	1205	158.06422830831	0
0	1208	158.09850601864	1
0	1210	158.353501435565	2
0	1211	158.451251976464	1
0	1213	158.491802672662	0
0	1216	158.533148388128	1
0	1217	158.658375250797	0
0	1236	162.31395476207	1
0	1237	162.669728650481	0
0	1244	162.876787713628	1
0	1245	163.080456978574	0
0	1276	167.593840094551	1
0	1278	167.644607136522	2
0	1279	167.785876388987	1
0	1282	167.792558073146	2
0	1283	167.921040340769	1
0	1285	167.986781738675	0
0	1288	168.240722675656	1
0	1289	168.350303870602	0
0	1308	169.869184489873	1
0	1309	169.919113271297	0
0	1328	172.38872083793	1
0	1329	172.737824973117	0
0	1336	173.043894778158	1
0	1337	173.276682913088	0
0	1348	174.653530248504	1
0	1349	174.685010588345	0
0	1352	174.689739803561	1
0	1354	174.694607508231	2
0	1355	174.871917158099	1
0	1357	175.00832810657	0
0	1364	175.879276013643	1
0	1365	175.993075902995	0
0	1380	178.896153347644	1
0	1381	178.958575802438	0
0	1396	180.88748737494	1
0	1397	180.908556673894	0
0	1400	180.983135397889	1
0	1402	181.305589643472	2
0	1403	181.388273345874	1
0	1405	181.405954563976	0
0	1416	182.564560613724	1
0	1418	182.642203406476	2
0	1419	182.732471460148	1
0	1421	183.000560209874	0
0	1424	183.166347958954	1
0	1425	183.3412564659	0
0	1436	183.830303943079	1
0	1438	183.917403301371	2
0	1439	183.947135775315	1
0	1442	183.986696712083	2
0	1443	184.040701221756	1
0	1446	184.419165766798	2
0	1448	184.467564502952	3
0	1449	184.492693197529	2
0	1451	184.721148908452	1
0	1453	184.993051885242	0
0	1460	185.717881215429	1
0	1461	186.115593425689	0
0	1472	187.620925113064	1
0	1473	187.77137801528	0
0	1476	187.898754569643	1
0	1478	188.219241342275	2
0	1479	188.223400212704	1
0	1481	188.568412722783	0
0	1484	188.653226333284	1
0	1485	188.918223750774	0
0	1492	189.296767968811	1
0	1493	189.661436241726	0
0	1496	189.954029017853	1
0	1497	189.979466769985	0
0	1504	190.68721634184	1
0	1505	190.762578534847	0
0	1508	190.871507811645	1
0	1510	191.004054362348	2
0	1511	191.160774272238	1
0	1514	191.354067180406	2
0	1515	191.389843684691	1
0	1517	191.685335766245	0
0	1524	193.298614073781	1
0	1525	193.319466113564	0
0	1528	193.349890020283	1
0	1529	193.548077840576	0
0	1532	193.835895465814	1
0	1533	194.024015077957	0
0	1540	194.915634506922	1
0	1541	195.240248753116	0
0	1548	197.401800193422	1
0	1550	197.451410956664	2
0	1551	197.765145914422	1
0	1553	197.844853146377	0
0	1556	197.953436543603	1
0	1557	198.159302366109	0
0	1584	202.696586733222	1
0	1586	202.989971136562	2
0	1587	203.112291307041	1
0	1590	203.238575779733	2
0	1591	203.289975731835	1
0	1593	203.298139984222	0
0	1616	206.027335540356	1
0	1618	206.07560617987	2
0	1620	206.104402638279	3
0	1622	206.149656373353	4
0	1624	206.285018568722	5
0	1625	206.448150888757	4
0	1627	206.564522954841	3
0	1629	206.727873398197	2
0	1631	206.954954597723	1
0	1634	207.199789646651	2
0	1635	207.262186951094	1
0	1637	207.278724245584	0
0	1640	207.569249656621	1
0	1641	207.713468512144	0
0	1656	208.863524726902	1
0	1657	208.97299322989	0
0	1680	212.747398454659	1
0	1681	212.916350623442	0
0	1684	212.981859118295	1
0	1686	213.005226569163	2
0	1688	213.190807429564	3
0	1689	213.403478731949	2
0	1691	213.484955943737	1
0	1693	213.689482990851	0
0	1696	214.08127476701	1
0	1697	214.184655493906	0
0	1708	215.644239617996	1
0	1710	215.831770589555	2
0	1711	215.909430541639	1
0	1713	215.942082644748	0
0	1720	216.677626951342	1
0	1721	216.785300374312	0
0	1728	217.492564595049	1
0	1729	217.584210533086	0
0	1768	224.68010978809	1
0	1769	224.868818846749	0
0	1772	224.93347139504	1
0	1773	225.331302304854	0
0	1788	227.435826216702	1
0	1790	227.676265328854	2
0	1791	227.694622693454	1
0	1793	228.179108545288	0
0	1796	228.273510300608	1
0	1797	228.671854260481	0
0	1804	229.474883135544	1
0	1805	229.558642016848	0
0	1808	229.613119493816	1
0	1810	229.742675621757	2
0	1811	230.054647638936	1
0	1814	230.078867072776	2
0	1815	230.107600718162	1
0	1817	230.232310739703	0
0	1828	231.654400932256	1
0	1829	231.756025495111	0
0	1836	232.95763217256	1
0	1837	233.262571025781	0
0	1840	233.456281634643	1
0	1842	233.527533107468	2
0	1843	233.703431132856	1
0	1846	233.761930953288	2
0	1847	233.839649581724	1
0	1850	233.958011598099	2
0	1851	234.026797673224	1
0	1853	234.216326121149	0
0	1856	234.527909301431	1
0	1857	234.590720247385	0
0	1868	235.847771311711	1
0	1869	235.896756494995	0
0	1876	237.150216680075	1
0	1877	237.352978812789	0
0	1888	238.338435362893	1
0	1889	238.697205917272	0
0	1892	238.736046463547	1
0	1893	239.014204764916	0
0	1896	239.102659132886	1
0	1898	239.317115050772	2
0	1900	239.329579098636	3
0	1902	239.410150388049	4
0	1903	239.44784946769	3
0	1906	239.480846944415	4
0	1907	239.797636998412	3
0	1910	240.09620636993	4
0	1911	240.173019430428	3
0	1913	240.398930271217	2
0	1916	240.713546307957	3
0	1917	240.869035117971	2
0	1919	240.904470007811	1
0	1922	241.186597178584	2
0	1923	241.388452793299	1
0	1925	241.534849808845	0
0	1928	241.743826294442	1
0	1929	242.032050202894	0
0	1932	242.040491578572	1
0	1933	242.108227554304	0
0	1944	242.926350205047	1
0	1945	243.175711042777	0
0	1952	244.576604151487	1
0	1954	244.586348797963	2
0	1955	244.986701189245	1
0	1957	245.260143637595	0
0	1964	246.612168863451	1
0	1965	246.669215628479	0
0	1968	246.761845364922	1
0	1970	246.883218083602	2
0	1971	246.965330837478	1
0	1973	247.168697508352	0
0	1976	247.316864093017	1
0	1977	247.617078086661	0
0	1992	251.103434570388	1
0	1993	251.291377319262	0
0	2012	254.117197394648	1
0	2013	254.366242308715	0
0	2016	254.608461566009	1
0	2017	254.741539818198	0
0	2020	254.808359202248	1
0	2021	254.908293552078	0
0	2028	256.608129589917	1
0	2029	256.946980927418	0
0	2052	260.028302263757	1
0	2053	260.153796822143	0
0	2056	260.405908172637	1
0	2057	260.494054063301	0
0	2080	264.601625022453	1
0	2082	264.681867076132	2
0	2083	264.882045896322	1
0	2085	265.023395719769	0
0	2096	266.333980842095	1
0	2097	266.511066365382	0
0	2104	266.65469399023	1
0	2105	266.828616923621	0
0	2108	267.062990334654	1
0	2109	267.093885530919	0
0	2112	267.287034318842	1
0	2113	267.554941262669	0
0	2120	267.719722700943	1
0	2121	267.839295983342	0
0	2132	269.184276078897	1
0	2133	269.491117600243	0
0	2144	271.558364203397	1
0	2145	271.563859684721	0
0	2148	271.729451549205	1
0	2149	271.852429808096	0
0	2152	272.116709943172	1
0	2153	272.200064811136	0
0	2160	273.006875750916	1
0	2162	273.135668184087	2
0	2163	273.235085574898	1
0	2165	273.236437182047	0
0	2168	273.439024388709	1
0	2169	273.560035507998	0
0	2188	278.197672536299	1
0	2189	278.25540942286	0
0	2200	279.313088452647	1
0	2201	279.465304983618	0
0	2216	283.568699121685	1
0	2217	283.587148798438	0
0	2244	288.314341225564	1
0	2245	288.42478011335	0
0	2252	288.966796707346	1
0	2253	289.063745216309	0
0	2256	289.452821191586	1
0	2257	289.499638084747	0
0	2260	289.691320067058	1
0	2261	289.750998466584	0
0	2264	290.081904462052	1
0	2266	290.146343785073	2
0	2267	290.212172456627	1
0	2269	290.482862853404	0
0	2272	290.717151546833	1
0	2274	290.886372113242	2
0	2276	290.908335730305	3
0	2277	290.944515885162	2
0	2280	290.970040466059	3
0	2282	291.026305439248	4
0	2284	291.216560913529	5
0	2286	291.358097131453	6
0	2287	291.359464570257	5
0	2289	291.377481481369	4
0	2291	291.464867485064	3
0	2293	291.659434824675	2
0	2296	291.771760093255	3
0	2297	292.119326230214	2
0	2299	292.269340687973	1
0	2301	292.745412037435	0
0	2304	292.955878119756	1
0	2305	293.22955524475	0
0	2316	293.981261514548	1
0	2317	294.068525802581	0
0	2320	294.416069194967	1
0	2322	294.494905221382	2
0	2323	294.52246359806	1
0	2325	294.602578834169	0
0	2328	294.699363986005	1
0	2329	294.933137591816	0
0	2360	298.751040119453	1
0	2362	299.036293113491	2
0	2363	299.10301390722	1
0	2366	299.140144756597	2
0	2367	299.472955867542	1
0	2370	299.768142555984	2
0	2371	299.809247020875	1
0	2373	300.073716984955	0
0	2376	300.138268651691	1
0	2378	300.331515742713	2
0	2380	300.333067921117	3
0	2381	300.522748165424	2
0	2383	300.674971348266	1
0	2386	300.787853273553	2
0	2387	300.856065877024	1
0	2389	301.091390351425	0
0	2392	301.311449401299	1
0	2394	301.314050967703	2
0	2395	301.590371477543	1
0	2397	301.779494065917	0
0	2412	303.901427143153	1
0	2413	304.129801949623	0
0	2420	305.386253355701	1
0	2421	305.504888454474	0
0	2424	305.644355083169	1
0	2425	305.743711706971	0
0	2452	310.032838323164	1
0	2453	310.068883987912	0
0	2472	312.434889510864	1
0	2474	312.45403390975	2
0	2475	312.506753973661	1
0	2477	312.705382350598	0
0	2496	316.93889751967	1
0	2497	317.190326388785	0
0	2500	317.354027843053	1
0	2501	317.678439219342	0
0	2508	318.98675575329	1
0	2510	319.145640423981	2
0	2512	319.188450821036	3
0	2513	319.308807607907	2
0	2515	319.382650396953	1
0	2517	319.550399484396	0
0	2524	319.924075446119	1
0	2525	319.944429758969	0
0	2528	319.997891387735	1
0	2529	320.065380611606	0
0	2532	320.14886888948	1
0	2533	320.281521353088	0
0	2540	321.27202635175	1
0	2542	321.55597019831	2
0	2543	321.55970224472	1
0	2545	321.618362486262	0
0	2548	321.752578841805	1
0	2549	322.097732948388	0
0	2564	325.00873524308	1
0	2565	325.405841956712	0
0	2568	325.462166796733	1
0	2569	325.873757996346	0
0	2580	327.45207571436	1
0	2581	327.523410372227	0
0	2588	328.280931019198	1
0	2589	328.518615996137	0
0	2596	329.430545322815	1
0	2598	329.477828691065	2
0	2599	329.857090927506	1
0	2601	329.905719927008	0
0	2604	329.960546590913	1
0	2605	330.15460837908	0
0	2608	330.201536195693	1
0	2610	330.252310580983	2
0	2611	330.445149343073	1
0	2613	330.529662044447	0
0	2644	336.40699296251	1
0	2646	336.42722194034	2
0	2647	336.566188930545	1
0	2649	336.624846713861	0
0	2652	336.757761840755	1
0	2653	337.053409172931	0
0	2656	337.064245475096	1
0	2657	337.189035211351	0
0	2660	337.198357021732	1
0	2662	337.228694171819	2
0	2664	337.294799971733	3
0	2665	337.390931583253	2
0	2667	337.563290644331	1
0	2669	337.763196715281	0
0	2676	338.521535948775	1
0	2677	338.62328368494	0
0	2680	338.761681855679	1
0	2682	338.772791181688	2
0	2683	338.942877135809	1
0	2686	339.007595197752	2
0	2687	339.14245770882	1
0	2689	339.358337771484	0
0	2692	339.549369291899	1
0	2693	339.665601619157	0
0	2708	342.019814303625	1
0	2709	342.187143264802	0
0	2712	342.209873819294	1
0	2713	342.455604765679	0
0	2724	344.018369893329	1
0	2725	344.056003338891	0
0	2736	345.311539808572	1
0	2737	345.425037354832	0
0	2744	345.73450994593	1
0	2745	345.993121033972	0
0	2748	346.282334881055	1
0	2750	346.297376278823	2
0	2751	346.344729780541	1
0	2753	346.662122943527	0
0	2768	349.081075645364	1
0	2769	349.095066614755	0
0	2820	359.040027225828	1
0	2822	359.052657786728	2
0	2824	359.130567379783	3
0	2825	359.146361501138	2
0	2827	359.17943623133	1
0	2829	359.229443262513	0
0	2840	359.847643863143	1
0	2842	359.875985803722	2
0	2843	360.045169065918	1
0	2845	360.126229199676	0
0	2872	364.589535406175	1
0	2874	364.626041678096	2
0	2875	364.674104610673	1
0	2877	364.848824758414	0
0	2880	364.899997896947	1
0	2882	365.145770576324	2
0	2884	365.233181576341	3
0	2885	365.239564558706	2
0	2887	365.254040834942	1
0	2890	365.448732489949	2
0	2892	365.498985251816	3
0	2893	365.629551659088	2
0	2895	365.82583605019	1
0	2897	366.273681697069	0
0	2900	366.523354248603	1
0	2901	366.737287602603	0
0	2904	367.074052287757	1
0	2905	367.176473849087	0
0	2908	367.181093385089	1
0	2909	367.521866237262	0
0	2928	369.830486996756	1
0	2929	369.872149824629	0
0	2936	370.301667390681	1
0	2937	370.361393588316	0
0	2940	370.413561776749	1
0	2941	370.609378736769	0
0	2944	370.774391150595	1
0	2946	370.825680780543	2
0	2947	370.950248709601	1
0	2949	371.08891884489	0
0	2980	374.287283826227	1
0	2981	374.500492387385	0
0	2996	377.416916766294	1
0	2997	377.701081248296	0
0	3008	379.401778322046	1
0	3009	379.408217567506	0
0	3012	379.670370190589	1
0	3013	379.873626927517	0
0	3024	381.706776393143	1
0	3026	381.9842922558	2
0	3028	382.033592005899	3
0	3029	382.128748411188	2
0	3031	382.129440088632	1
0	3033	382.253282597746	0
0	3048	385.125235823198	1
0	3049	385.127845172644	0
0	3068	388.256192696989	1
0	3069	388.493123333015	0
0	3076	389.418384751406	1
0	3077	389.867809992005	0
0	3080	389.996734396256	1
0	3082	390.128112101226	2
0	3083	390.263749774733	1
0	3085	390.386194514415	0
0	3088	390.515148122567	1
0	3089	390.724039087493	0
0	3108	393.019634275286	1
0	3110	393.134697159365	2
0	3111	393.138331478978	1
0	3113	393.385310395206	0
0	3116	393.518059850429	1
0	3117	393.774396192333	0
0	3120	393.806021336864	1
0	3121	394.196513673225	0
0	3128	395.82918366077	1
0	3129	395.863709504289	0
0	3132	395.870314943506	1
0	3133	396.285136950357	0
0	3136	396.51923322808	1
0	3137	396.694153602972	0
0	3148	399.275938738181	1
0	3149	399.286163032838	0
0	3152	399.294561784333	1
0	3153	399.323842568058	0
0	3164	400.889434658558	1
0	3165	400.890731993738	0
0	3180	403.637402210374	1
0	3182	403.638742539542	2
0	3183	403.653273519417	1
0	3185	403.849171988605	0
0	3200	405.679054250926	1
0	3202	405.68280242315	2
0	3203	405.908218727336	1
0	3205	405.928215130121	0
0	3228	409.338093083723	1
0	3229	409.511244177189	0
0	3240	410.560692766445	1
0	3241	410.712240271312	0
0	3248	411.417572189315	1
0	3249	411.423188137346	0
0	3252	411.462024301763	1
0	3253	411.567473116553	0
0	3256	411.594771823087	1
0	3258	411.637208684993	2
0	3260	411.831525468109	3
0	3261	412.004673076201	2
0	3263	412.060886737065	1
0	3265	412.152403383971	0
0	3284	413.825740528304	1
0	3286	413.917727500119	2
0	3288	413.951030068739	3
0	3289	413.99143237166	2
0	3291	413.991705357091	1
0	3293	414.023482247017	0
0	3296	414.10451876001	1
0	3297	414.236183112481	0
0	3300	414.318647774416	1
0	3301	414.340309740504	0
0	3304	414.364841533794	1
0	3305	414.806506711518	0
0	3308	414.825781162934	1
0	3309	414.914205814589	0
0	3316	415.537846119453	1
0	3318	415.747225795581	2
0	3319	415.853766896525	1
0	3321	415.93334001605	0
0	3340	418.322227842571	1
0	3342	418.351742368999	2
0	3344	418.39346637778	3
0	3345	418.715150141422	2
0	3347	418.73982461452	1
0	3350	418.757477819277	2
0	3351	418.979516892377	1
0	3353	419.125961174988	0
0	3356	419.460943091915	1
0	3358	419.477345869277	2
0	3359	419.583392720702	1
0	3362	419.782381264915	2
0	3363	419.79244732534	1
0	3365	419.878922999869	0
0	3376	421.600249975558	1
0	3377	421.614181235329	0
0	3400	424.70835301846	1
0	3401	424.745205597998	0
0	3420	428.220452656065	1
0	3421	428.662874010205	0
0	3436	430.659569242274	1
0	3437	430.661422824174	0
0	3444	431.282085650183	1
0	3445	431.613861742513	0
0	3448	431.78039028976	1
0	3449	432.075514394291	0
0	3456	432.428227391765	1
0	3457	432.541875575687	0
0	3460	432.752262571607	1
0	3461	432.841982008442	0
0	3464	433.192716380245	1
0	3465	433.323580656335	0
0	3468	433.338980416707	1
0	3469	433.397481323587	0
0	3472	433.451184018472	1
0	3473	433.525939648058	0
0	3476	433.959040355	1
0	3477	433.962718062703	0
0	3484	434.896599263622	1
0	3485	435.123630576	0
0	3500	436.89966770437	1
0	3501	436.9438156751	0
0	3508	437.850359828189	1
0	3509	437.911997486795	0
0	3512	438.027459135232	1
0	3513	438.09067092692	0
0	3520	439.963296882195	1
0	3522	440.068505333812	2
0	3523	440.305616057509	1
0	3526	440.436401997318	2
0	3527	440.450572781762	1
0	3530	440.672199857543	2
0	3531	440.73942749252	1
0	3534	440.810801576802	2
0	3535	441.103200990506	1
0	3538	441.387683458485	2
0	3539	441.492790706721	1
0	3541	441.665055938098	0
0	3544	441.940859990965	1
0	3545	442.062851120984	0
0	3560	447.862250175954	1
0	3562	447.885394928913	2
0	3563	448.069818005318	1
0	3566	448.082136127397	2
0	3567	448.290478740705	1
0	3570	448.42563394535	2
0	3571	448.514663329351	1
0	3574	448.520123203709	2
0	3576	448.564580384882	3
0	3577	448.757868555028	2
0	3580	448.865985838884	3
0	3581	449.006958337387	2
0	3583	449.29088133958	1
0	3585	449.601465965391	0
0	3596	451.121833027041	1
0	3597	451.135937139149	0
0	3620	453.818419830285	1
0	3621	454.148038242043	0
0	3624	454.494330873318	1
0	3625	454.607311466041	0
0	3652	458.228999685584	1
0	3654	458.473244328779	2
0	3655	458.673523195766	1
0	3657	458.721748626421	0
0	3660	459.126890021279	1
0	3661	459.153483949465	0
0	3668	459.74143171298	1
0	3669	459.742473038973	0
0	3692	464.713843894036	1
0	3694	464.76879528163	2
0	3695	464.930063674738	1
0	3697	465.207386202923	0
0	3700	465.245321994719	1
0	3701	465.657967290188	0
0	3704	465.903023240998	1
0	3706	466.042901642194	2
0	3707	466.071398091315	1
0	3709	466.090676712383	0
0	3744	471.181817508411	1
0	3745	471.447010879588	0
0	3756	475.099015858778	1
0	3757	475.174267334838	0
0	3760	475.458664244915	1
0	3761	475.581207404004	0
0	3788	479.960512096357	1
0	3789	480.070680883322	0
0	3792	480.209247085069	1
0	3793	480.238669655942	0
0	3824	485.762090022004	1
0	3825	485.818690169548	0
0	3840	487.815316110125	1
0	3842	487.878121284797	2
0	3843	487.917830593186	1
0	3845	488.027882524068	0
0	3860	490.019164643694	1
0	3861	490.107923346254	0
0	3872	492.072048576687	1
0	3874	492.236379605522	2
0	3875	492.399411812126	1
0	3877	492.434003141876	0
0	3884	493.603988832894	1
0	3885	493.768149437744	0
0	3892	495.652173823115	1
0	3893	495.828151592451	0
0	3896	495.880852778841	1
0	3897	496.081307704725	0
0	3908	497.014644483847	1
0	3909	497.242811470443	0
0	3924	499.045312287851	1
0	3926	499.118610184126	2
0	3927	499.501306569681	1
0	3930	499.740991223522	2
0	3931	499.863277268142	1
0	3933	500.142864158854	0
0	3936	500.187837169394	1
0	3937	500.545496086485	0
0	3940	500.789897749452	1
0	3941	501.00664533932	0
0	3944	501.013771886831	1
0	3945	501.252826044348	0
0	3948	501.510056445754	1
0	3949	501.689742133383	0
0	3952	501.795367824755	1
0	3954	502.062415818738	2
0	3955	502.106732957078	1
0	3957	502.213650631149	0
0	3960	502.330515413807	1
0	3962	502.346805740599	2
0	3964	502.37827298153	3
0	3965	502.599263362599	2
0	3967	502.605348944444	1
0	3969	502.720132664674	0
0	3980	504.050102478609	1
0	3982	504.112955922992	2
0	3984	504.133736982391	3
0	3985	504.287579264464	2
0	3987	504.33641744961	1
0	3990	504.460418715998	2
0	3991	504.593878552406	1
0	3993	504.708201827337	0
0	3996	504.903744783302	1
0	3997	505.177407839657	0
0	4024	509.792940154962	1
0	4026	509.854510908417	2
0	4028	509.99461664747	3
0	4030	510.060976162393	4
0	4031	510.134306664844	3
0	4033	510.149637189261	2
0	4036	510.187321350852	3
0	4037	510.261843997902	2
0	4039	510.521884708349	1
0	4042	510.57538293966	2
0	4043	510.813044575076	1
0	4045	510.86678085852	0
0	4056	512.397614906517	1
0	4057	512.609521085356	0
0	4064	513.021163713093	1
0	4065	513.203010513856	0
0	4076	517.032963448271	1
0	4077	517.195702499485	0
0	4080	517.369743843503	1
0	4081	517.572322559667	0
0	4092	519.09685797544	1
0	4094	519.168763652836	2
0	4095	519.286728123056	1
0	4097	519.67586620603	0
0	4116	522.307631769515	1
0	4118	522.52327343559	2
0	4120	522.668917677287	3
0	4122	522.706685907742	4
0	4123	522.736656894792	3
0	4125	522.770703446005	2
0	4127	522.835381328828	1
0	4129	523.071109988611	0
0	4132	523.223771527126	1
0	4134	523.368421191211	2
0	4135	523.543035414886	1
0	4138	523.667543798888	2
0	4140	523.83759359046	3
0	4141	523.902729944211	2
0	4143	524.029921141455	1
0	4145	524.204917565456	0
0	4160	526.489116213238	1
0	4161	526.729513451992	0
0	4172	527.371595026556	1
0	4173	527.487598365573	0
0	4176	527.550067844698	1
0	4178	527.705228152051	2
0	4180	527.816505970541	3
0	4181	527.851370172626	2
0	4183	527.863506526737	1
0	4185	528.078564520278	0
0	4188	528.155765744782	1
0	4190	528.367430947809	2
0	4191	528.404626818541	1
0	4194	528.568118085416	2
0	4196	528.602368426307	3
0	4198	528.609349460434	4
0	4199	528.642289208881	3
0	4201	528.649043560544	2
0	4203	528.781859837523	1
0	4205	529.208482827343	0
0	4220	530.955848476844	1
0	4221	531.066603167288	0
0	4224	531.067818957067	1
0	4225	531.18298950333	0
0	4232	532.459145737662	1
0	4234	532.787433058904	2
0	4235	532.789327985175	1
0	4238	532.835538805989	2
0	4240	532.965751340733	3
0	4241	533.068353605141	2
0	4243	533.27767203577	1
0	4246	533.544001723811	2
0	4247	533.630146065994	1
0	4249	533.632801090984	0
0	4252	533.917711061572	1
0	4253	533.990372716717	0
0	4264	535.240984321709	1
0	4265	535.251278027079	0
0	4280	537.471104398359	1
0	4281	537.531781076105	0
0	4288	538.689671243097	1
0	4290	538.792229730853	2
0	4291	539.146314666764	1
0	4293	539.239263465786	0
0	4300	539.991239046568	1
0	4302	540.244978128571	2
0	4303	540.269239188171	1
0	4305	540.323691059252	0
0	4312	541.372489721786	1
0	4313	541.446186149382	0
0	4320	542.13516291452	1
0	4321	542.28838135027	0
0	4324	542.400721674078	1
0	4325	542.487340659063	0
0	4328	542.745685959976	1
0	4329	542.874591138257	0
0	4332	542.885293979118	1
0	4333	542.945069878172	0
0	4356	549.293129152732	1
0	4358	549.379047830126	2
0	4359	549.604844607236	1
0	4361	549.781957017779	0
0	4372	551.990239965223	1
0	4374	552.042921711411	2
0	4376	552.234209648445	3
0	4377	552.335668761169	2
0	4379	552.385794635515	1
0	4382	552.607431884704	2
0	4383	552.765286913144	1
0	4385	552.773817156327	0
0	4396	554.835969044349	1
0	4398	555.056241934429	2
0	4399	555.080818625112	1
0	4402	555.211058547314	2
0	4403	555.228793543825	1
0	4405	555.505013072925	0
0	4412	556.123976070363	1
0	4413	556.167629364218	0
0	4448	563.040807516988	1
0	4449	563.135572814681	0
0	4452	563.276089755092	1
0	4453	563.314451757768	0
0	4464	564.44695109571	1
0	4465	564.54933935843	0
0	4476	566.67551328338	1
0	4478	566.859000722321	2
0	4479	567.013253076113	1
0	4481	567.289543740446	0
0	4492	569.644208864604	1
0	4494	569.756466120646	2
0	4496	569.795390223463	3
0	4497	569.98470353353	2
0	4500	570.021051016252	3
0	4501	570.039964682019	2
0	4503	570.355380587225	1
0	4505	570.849325171733	0
0	4508	570.888985906665	1
0	4510	571.050071090076	2
0	4512	571.279892604098	3
0	4513	571.348322173525	2
0	4515	571.412332609706	1
0	4517	571.703929024577	0
0	4520	571.996452895055	1
0	4521	572.005590522257	0
0	4532	572.94736660732	1
0	4533	573.33567383896	0
0	4548	574.779844038658	1
0	4550	575.07729712249	2
0	4551	575.11864393192	1
0	4553	575.283469510257	0
0	4556	575.335339485336	1
0	4558	575.371023290645	2
0	4559	575.647748877054	1
0	4561	575.701831639388	0
0	4576	578.118816538814	1
0	4578	578.218943016273	2
0	4579	578.262747050782	1
0	4582	578.309877587314	2
0	4583	578.31397019169	1
0	4586	578.447418744193	2
0	4587	578.452295056946	1