version 3
run Net1-0-20221230-18:46:21-10117
attr configname Net1
attr datetime 20221230-18:46:21
attr datetimef 20221230-184621
attr experiment Net1
attr inifile omnetpp.ini
attr iterationvars ""
attr iterationvarsd ""
attr iterationvarsf ""
attr measurement ""
attr network Net
attr processid 10117
attr repetition 0
attr replication #0
attr resultdir results
attr runnumber 0
attr seedset 0
config description "rho 0.4"
config **.source*.avgInterArrivalTime 0.5s
config **.queue*.avgServiceTime 0.2s
config network Net
config sim-time-limit 1h
config cpu-time-limit 300s

vector 0 Net.queue1 qlen:vector ETV
attr interpolationmode sample-hold
attr recordingmode vector
attr title "queue length"
vector 1 Net.queue1 queueingTime:vector ETV
attr interpolationmode none
attr recordingmode vector
attr title "queueing time at dequeue"
attr unit s
vector 2 Net.queue1 responseTime:vector ETV
attr interpolationmode none
attr recordingmode vector
attr title "response time at end of service"
attr unit s
vector 3 Net.sink1 lifetime:vector ETV
attr interpolationmode none
attr recordingmode vector
attr title "lifetime of arrived msg"
attr unit s
vector 4 Net.sink1 arrivedMsg:vector ETV
attr interpolationmode none
attr recordingmode vector
attr title "number of arrived msg"
0	0	0	0
0	4	0.449280194242	1
0	5	0.548813502304	0
0	24	4.02540429038	1
0	26	4.201983859949	2
0	28	4.231176194496	3
0	30	4.390354264917	4
0	31	4.428734323611	3
0	34	4.715077439042	4
0	35	4.812175844931	3
0	37	5.249763054908	2
0	40	5.551183039204	3
0	42	5.878124322815	4
0	43	6.041488088337	3
0	46	6.127560327323	4
0	47	6.570383009869	3
0	50	7.03174495946	4
0	51	7.138427573624	3
0	53	7.209463632335	2
0	56	7.237533957581	3
0	58	7.759840211735	4
0	60	7.989464280363	5
0	61	8.101236634092	4
0	63	8.121455033212	3
0	65	8.20858433018	2
0	67	9.04120417302	1
0	70	9.564549244701	2
0	72	9.640164671533	3
0	73	9.966800806248	2
0	76	10.660610779489	3
0	77	10.744957563137	2
0	80	10.981465365828	3
0	81	11.614969708394	2
0	84	11.788466403274	3
0	86	12.155948613869	4
0	87	12.414128272231	3
0	90	12.723918084724	4
0	91	12.87560763503	3
0	93	12.993882058789	2
0	96	13.361531935836	3
0	97	13.774411234441	2
0	100	13.797692533357	3
0	102	14.183109862591	4
0	103	14.414332251432	3
0	105	14.557685536933	2
0	108	14.893792202638	3
0	110	14.949765282954	4
0	112	15.27061263397	5
0	114	15.373714274985	6
0	115	15.502354455548	5
0	117	15.766910066963	4
0	120	16.041359367297	5
0	122	16.163383612665	6
0	123	16.181572008082	5
0	126	16.236022626311	6
0	128	16.431908031649	7
0	130	16.512976276372	8
0	131	16.63772234404	7
0	134	16.638697242409	8
0	135	16.656512142061	7
0	138	16.882975767063	8
0	139	17.17836047024	7
0	141	17.746794418567	6
0	144	18.04743245417	7
0	146	18.346305492579	8
0	147	18.35889014103	7
0	149	18.71839804309	6
0	152	18.821052784327	7
0	153	19.335332041742	6
0	155	19.772363994406	5
0	158	19.984228315174	6
0	160	20.036508928062	7
0	161	20.389999495256	6
0	163	20.450224961755	5
0	165	21.132045259602	4
0	168	21.786615770289	5
0	169	21.829676455022	4
0	172	22.316032836033	5
0	174	22.409745869042	6
0	175	22.4964431663	5
0	178	22.631447883352	6
0	179	22.706825727965	5
0	181	22.835752026313	4
0	184	23.325969228248	5
0	185	23.506389900013	4
0	188	23.794000008134	5
0	189	23.821818249668	4
0	192	23.990556286786	5
0	194	24.010147864993	6
0	195	24.185529023078	5
0	198	24.513083367576	6
0	199	24.624130536471	5
0	201	25.194327312423	4
0	203	25.968560998928	3
0	206	26.109556688603	4
0	208	26.638469895279	5
0	209	26.91230907421	4
0	211	27.014353881026	3
0	214	27.142479517989	4
0	215	27.223230639607	3
0	217	27.384540150775	2
0	219	28.348202914833	1
0	221	29.326821257728	0
0	224	29.822529693111	1
0	226	30.258487619924	2
0	227	30.315195089574	1
0	230	30.526019958466	2
0	231	30.568486690889	1
0	234	30.847910459267	2
0	235	31.034797463701	1
0	237	31.279223051756	0
0	240	31.336342496302	1
0	242	31.542593111263	2
0	243	31.932331373818	1
0	245	32.042706512982	0
0	248	32.10417726203	1
0	249	32.201676099464	0
0	252	32.294955183717	1
0	253	32.858005691455	0
0	268	35.091834775933	1
0	270	35.579385743011	2
0	271	35.905995717629	1
0	273	36.003096988781	0
0	276	36.139292925888	1
0	277	36.841041895452	0
0	288	39.335039559123	1
0	290	39.363703022335	2
0	291	39.447398960772	1
0	294	39.663676465656	2
0	296	39.673771529729	3
0	298	39.965210724162	4
0	299	40.052244478785	3
0	301	40.091432267748	2
0	303	40.374239227217	1
0	305	41.113502808562	0
0	308	41.910995785585	1
0	309	42.090263899364	0
0	312	42.133705516545	1
0	313	42.210460463953	0
0	316	42.461528658727	1
0	317	42.506600663247	0
0	336	45.897659394119	1
0	337	46.173709755436	0
0	356	49.811232297619	1
0	358	49.973902505384	2
0	360	49.978602880716	3
0	361	50.343793551619	2
0	363	50.662362506562	1
0	366	50.902266706217	2
0	367	51.329772882811	1
0	370	51.423157033307	2
0	371	51.461570744817	1
0	373	52.177897942667	0
0	376	52.343798269051	1
0	378	52.497557130932	2
0	380	52.75115719256	3
0	381	53.107194140502	2
0	384	53.153555892461	3
0	386	53.243682018453	4
0	387	53.290385503969	3
0	389	53.310493054516	2
0	392	53.474547466475	3
0	394	53.55371821959	4
0	395	53.599899145491	3
0	397	53.604594627577	2
0	400	53.975259735664	3
0	401	54.191107560597	2
0	403	54.461115529244	1
0	406	54.583514062382	2
0	408	54.7536874315	3
0	410	55.03763950824	4
0	411	55.138932068548	3
0	413	55.387685208297	2
0	416	55.743151712887	3
0	418	55.995323616181	4
0	419	56.122879228736	3
0	421	56.699036564626	2
0	424	57.127190404111	3
0	425	57.291078491084	2
0	428	57.63651976912	3
0	429	57.86333039258	2
0	431	58.086412023235	1
0	434	58.747273218357	2
0	435	58.91535205156	1
0	438	59.317077200123	2
0	440	59.615266897288	3
0	441	59.868101060804	2
0	443	60.315226439334	1
0	445	61.161635105446	0
0	448	61.53677018891	1
0	450	61.598533512591	2
0	451	62.123823650362	1
0	454	62.326942791873	2
0	455	62.421260602022	1
0	458	62.592304040181	2
0	459	63.120739879501	1
0	462	63.154945048603	2
0	464	63.298650286638	3
0	466	63.486519707841	4
0	467	63.517245618342	3
0	469	64.098518494232	2
0	471	64.912316313893	1
0	474	65.168704934367	2
0	476	65.612635639585	3
0	477	65.793419514731	2
0	480	66.151553081653	3
0	481	66.485951106245	2
0	484	66.532486967301	3
0	486	66.663515588139	4
0	488	66.914670987269	5
0	489	66.987275489321	4
0	492	67.396897770016	5
0	493	67.411130533269	4
0	496	67.718950124177	5
0	497	68.017523750145	4
0	500	68.036513981992	5
0	501	68.036716950772	4
0	503	68.338291767001	3
0	506	68.666035740624	4
0	508	68.835868106915	5
0	509	68.982281963521	4
0	512	69.07768595021	5
0	513	69.272359573462	4
0	516	69.769175553478	5
0	517	69.890375000372	4
0	519	70.319143698964	3
0	522	70.822899355953	4
0	524	70.8771729052	5
0	526	70.925634282488	6
0	527	70.979317237338	5
0	529	71.114791305916	4
0	532	71.144148289375	5
0	533	71.413073633745	4
0	536	71.545424282254	5
0	538	71.562525991433	6
0	539	71.983038545301	5
0	541	72.557363801118	4
0	543	73.148236564076	3
0	546	73.298793731074	4
0	548	73.492358777149	5
0	550	73.617399524638	6
0	552	73.693546337265	7
0	554	73.744706644691	8
0	555	73.801437379508	7
0	557	74.16899925116	6
0	559	74.600417685644	5
0	561	75.036282604975	4
0	563	75.688385879337	3
0	566	75.813611524946	4
0	568	75.964394481558	5
0	570	76.349432911331	6
0	571	76.413640160761	5
0	574	76.646469660493	6
0	576	76.698910578293	7
0	578	76.916083406265	8
0	579	77.117528746319	7
0	581	77.217755632889	6
0	584	77.232814715126	7
0	585	77.93199693127	6
0	588	78.152681107665	7
0	589	78.738190923067	6
0	591	78.887639227737	5
0	594	79.32776975254	6
0	596	79.346911208982	7
0	598	79.701870172594	8
0	599	79.769374587288	7
0	602	79.793139473535	8
0	603	79.931867518643	7
0	605	80.055687501043	6
0	608	80.54805120134	7
0	609	80.671247068508	6
0	611	81.51925529581	5
0	614	81.549044449103	6
0	616	81.814045888171	7
0	618	81.889441393268	8
0	620	81.906334786044	9
0	621	82.387381356391	8
0	623	82.456548346621	7
0	625	82.863731644298	6
0	627	83.432832388622	5
0	630	83.931258205446	6
0	632	84.164894488651	7
0	633	84.240151348938	6
0	636	84.437323052723	7
0	638	84.463279328814	8
0	640	84.69073525121	9
0	641	84.693694029185	8
0	644	84.699119134206	9
0	646	84.830283788789	10
0	647	85.391122801644	9
0	649	85.402836883157	8
0	652	85.554180829783	9
0	653	86.124892488304	8
0	655	86.484870547378	7
0	658	86.996486705834	8
0	659	87.34067389038	7
0	662	87.689632381845	8
0	664	87.896938653175	9
0	665	88.070664452106	8
0	668	88.233168911592	9
0	669	88.242294129633	8
0	671	88.296632115679	7
0	674	88.440158372928	8
0	676	88.539073126658	9
0	678	88.632832602259	10
0	679	88.817668718701	9
0	681	88.836190512819	8
0	684	88.944131274248	9
0	685	89.036187038241	8
0	687	89.260111720949	7
0	690	89.982146804469	8
0	691	90.053809423415	7
0	693	90.399161101967	6
0	695	91.265543427966	5
0	698	91.424418948672	6
0	700	91.892988307534	7
0	701	92.157466786164	6
0	704	92.346970321196	7
0	705	92.861881185505	6
0	707	92.893720109431	5
0	710	93.11238593433	6
0	712	93.458985819099	7
0	714	93.484827271997	8
0	715	93.790266707722	7
0	717	93.95496086422	6
0	720	94.085312725268	7
0	721	94.532189449478	6
0	723	94.77008226439	5
0	725	95.391560671102	4
0	727	96.311043284084	3
0	730	96.524879169265	4
0	732	96.68036307175	5
0	733	97.239124576743	4
0	736	97.248661319379	5
0	737	97.853090529279	4
0	740	98.247247303124	5
0	741	98.388723326563	4
0	744	98.942085835012	5
0	745	98.978633304308	4
0	747	99.708755330597	3
0	750	100.611053001939	4
0	751	100.642969332351	3
0	753	100.954914327892	2
0	756	101.015043028639	3
0	758	101.134419465063	4
0	760	101.260218771619	5
0	762	101.383648406018	6
0	764	101.805137793725	7
0	765	101.91099796765	6
0	767	102.097190973065	5
0	770	102.105977286987	6
0	771	102.307034727135	5
0	773	102.705255794521	4
0	775	103.195714596375	3
0	778	103.863216627255	4
0	779	103.935265392945	3
0	781	104.162680022134	2
0	784	104.433785578685	3
0	786	104.478362723683	4
0	788	104.507398904741	5
0	790	104.841955766586	6
0	791	105.107052410668	5
0	793	105.165081573133	4
0	795	105.419438055898	3
0	797	105.731233932725	2
0	800	105.906290813852	3
0	801	106.165650561633	2
0	803	106.861994047365	1
0	806	107.779638120765	2
0	807	107.837515559462	1
0	809	108.215267396714	0
0	812	108.260357906551	1
0	814	108.651345766989	2
0	815	109.214114399576	1
0	817	109.238793128352	0
0	828	110.622107063541	1
0	829	110.975884473336	0
0	832	111.187284836496	1
0	833	111.429581312847	0
0	836	111.654315002799	1
0	837	111.966160521528	0
0	840	112.281416637844	1
0	842	112.598381647541	2
0	843	112.862831811805	1
0	846	112.90279810441	2
0	847	113.079728792806	1
0	849	113.742806996371	0
0	852	114.087257189828	1
0	854	114.161055206274	2
0	856	114.291230912048	3
0	857	114.733145942365	2
0	859	114.753796947108	1
0	861	115.017119325151	0
0	864	115.358012555785	1
0	865	115.775497977075	0
0	876	117.247145988339	1
0	878	117.613829824923	2
0	880	117.613857500871	3
0	881	117.639176591666	2
0	884	117.800739147779	3
0	886	118.077824562303	4
0	887	118.268158440612	3
0	889	118.541700473888	2
0	892	119.16070640274	3
0	893	119.339747304231	2
0	895	119.52538324743	1
0	898	119.730235228076	2
0	900	120.03475753443	3
0	901	120.35643170508	2
0	904	120.365009074305	3
0	905	121.043919977866	2
0	908	121.142340543209	3
0	909	121.259427655622	2
0	912	121.272660607897	3
0	913	122.13207831317	2
0	916	122.334033934868	3
0	918	122.522248610629	4
0	919	122.86293411571	3
0	921	123.076246090601	2
0	923	123.330187735981	1
0	926	124.100796381337	2
0	927	124.277558330581	1
0	930	124.419890684133	2
0	931	124.795759041928	1
0	933	124.821421755379	0
0	936	125.041566073107	1
0	938	125.125003393723	2
0	939	125.774213413609	1
0	942	125.780489577803	2
0	943	125.981683492329	1
0	946	126.300092396094	2
0	947	126.355853470875	1
0	950	126.42105221848	2
0	952	126.524231215282	3
0	953	126.780538936047	2
0	955	127.058167644445	1
0	958	127.348269301862	2
0	959	127.521743067209	1
0	962	128.035609278763	2
0	963	128.10852741254	1
0	965	128.226059269993	0
0	968	128.597339528537	1
0	970	128.75943908528	2
0	972	128.855569805701	3
0	973	129.089914871281	2
0	975	129.22198298098	1
0	978	129.465069478292	2
0	979	129.739362092125	1
0	982	129.776087937833	2
0	983	130.135421795905	1
0	986	130.693719639303	2
0	987	130.700843103597	1
0	990	130.808341801906	2
0	991	130.884122943174	1
0	994	130.898478951695	2
0	996	130.965149263331	3
0	997	131.028970705712	2
0	999	131.384583440743	1
0	1002	131.60536144032	2
0	1004	131.6208245861	3
0	1005	131.872639725351	2
0	1008	132.30799609331	3
0	1010	132.356579932494	4
0	1012	132.479178978815	5
0	1013	132.589499405253	4
0	1015	132.672921840002	3
0	1018	133.170837211891	4
0	1019	133.421585464518	3
0	1022	133.828650341039	4
0	1024	133.851994212861	5
0	1026	133.969322137489	6
0	1027	133.973777935974	5
0	1030	134.138399494911	6
0	1031	134.265925466682	5
0	1033	134.50675424388	4
0	1036	134.703858734505	5
0	1038	134.736415166898	6
0	1039	135.091230316221	5
0	1041	135.107659947493	4
0	1044	135.141985678012	5
0	1046	135.146627190201	6
0	1047	135.207953892083	5
0	1049	135.87787043433	4
0	1052	136.041621992442	5
0	1053	136.643195686762	4
0	1055	137.428348597039	3
0	1058	138.119607540224	4
0	1059	138.332068336562	3
0	1061	138.6137984408	2
0	1064	138.727452776903	3
0	1066	138.827673874446	4
0	1068	139.1867971145	5
0	1069	139.54332775892	4
0	1071	139.607283024716	3
0	1074	139.621079980233	4
0	1075	140.092910618189	3
0	1078	140.395585819811	4
0	1079	140.679320788144	3
0	1082	140.861891747445	4
0	1084	140.985099658551	5
0	1086	141.288739302861	6
0	1087	141.555826030572	5
0	1089	141.787527656083	4
0	1091	142.125686612113	3
0	1094	142.344183690052	4
0	1096	142.68308469108	5
0	1097	143.066118563658	4
0	1100	143.311703188865	5
0	1102	143.644624432183	6
0	1103	144.007496268621	5
0	1106	144.261064663698	6
0	1108	144.605781932622	7
0	1109	144.637944204167	6
0	1111	144.930964488203	5
0	1114	145.536497754113	6
0	1116	145.64454586241	7
0	1117	145.730167072865	6
0	1119	146.348043764842	5
0	1122	146.386667103735	6
0	1123	147.19698731894	5
0	1125	147.210224175727	4
0	1127	148.084512145625	3
0	1130	148.216495769117	4
0	1131	149.0338309674	3
0	1134	149.207870221419	4
0	1135	149.38106447914	3
0	1137	149.529205339163	2
0	1140	149.965904686332	3
0	1141	150.490775496832	2
0	1143	151.45271188034	1
0	1146	152.066834399456	2
0	1147	152.430207015614	1
0	1150	152.767172247936	2
0	1152	152.769200408597	3
0	1153	152.908577322162	2
0	1156	152.926199357629	3
0	1158	153.19043297178	4
0	1159	153.405968689726	3
0	1162	153.469936806775	4
0	1163	153.542868963809	3
0	1166	153.646735094406	4
0	1168	153.903092415721	5
0	1169	153.91145356688	4
0	1172	153.967382534359	5
0	1173	154.101301480684	4
0	1175	154.32561850468	3
0	1177	154.836937487026	2
0	1179	155.476410003512	1
0	1182	155.941199168139	2
0	1184	156.201738578681	3
0	1185	156.298527738445	2
0	1187	156.39637222457	1
0	1190	156.6228067301	2
0	1192	156.833303379124	3
0	1193	157.258563738682	2
0	1196	157.610950559301	3
0	1198	157.875931348937	4
0	1200	158.09850601864	5
0	1201	158.219398393196	4
0	1204	158.353501435565	5
0	1206	158.533148388128	6
0	1207	158.552543549466	5
0	1209	158.633644941862	4
0	1211	159.040886109595	3
0	1214	159.279464470224	4
0	1215	159.814933445903	3
0	1217	160.04716758746	2
0	1220	160.582750371384	3
0	1222	160.779501576945	4
0	1223	160.953723085479	3
0	1225	161.00715026296	2
0	1227	161.139637895993	1
0	1229	162.112557386181	0
0	1232	162.306931466449	1
0	1234	162.31395476207	2
0	1236	162.695166604177	3
0	1238	162.876787713628	4
0	1239	163.094386773084	3
0	1241	163.1058142282	2
0	1243	163.252760869817	1
0	1246	163.948980445885	2
0	1247	163.978355237882	1
0	1249	164.057877324655	0
0	1252	164.093236801059	1
0	1254	164.658926184861	2
0	1255	164.82845807345	1
0	1257	164.9180611066	0
0	1260	165.490409075198	1
0	1261	165.590108909546	0
0	1264	165.773356346015	1
0	1265	165.835476122233	0
0	1276	167.593840094551	1
0	1278	167.644607136522	2
0	1280	167.792558073146	3
0	1281	168.216151974722	2
0	1284	168.240722675656	3
0	1285	168.347634770534	2
0	1287	168.403009087405	1
0	1290	168.564310027678	2
0	1291	168.673336990968	1
0	1294	168.898961463671	2
0	1295	168.97493562484	1
0	1298	169.205681008467	2
0	1299	169.237053772759	1
0	1302	169.577472604355	2
0	1303	169.693194336815	1
0	1306	169.869184489873	2
0	1307	170.376475670699	1
0	1310	170.826605618694	2
0	1311	171.07210111697	1
0	1314	171.110690860565	2
0	1315	171.355619965445	1
0	1317	171.735546916814	0
0	1320	171.987548183077	1
0	1322	172.343552215889	2
0	1324	172.38872083793	3
0	1325	172.462591180669	2
0	1327	172.519439253582	1
0	1329	172.700590216413	0
0	1332	172.92818429218	1
0	1334	173.043894778158	2
0	1335	173.48913573087	1
0	1338	173.983453995263	2
0	1339	174.186132972686	1
0	1342	174.555299305556	2
0	1344	174.653530248504	3
0	1346	174.689739803561	4
0	1348	174.694607508231	5
0	1349	174.963540530622	4
0	1351	175.2229630962	3
0	1353	175.495784993142	2
0	1356	175.807649502952	3
0	1357	175.86959813265	2
0	1360	175.879276013643	3
0	1361	176.240450932736	2
0	1363	176.437505210376	1
0	1366	176.634506814255	2
0	1367	177.02510484713	1
0	1369	177.484960725856	0
0	1372	177.930731118647	1
0	1373	178.263656122702	0
0	1380	178.896153347644	1
0	1382	179.21311941089	2
0	1383	179.358473744059	1
0	1385	179.435430188013	0
0	1396	180.88748737494	1
0	1398	180.983135397889	2
0	1399	181.197328148395	1
0	1402	181.305589643472	2
0	1403	181.842898389543	1
0	1405	181.878260825746	0
0	1408	182.071013852944	1
0	1410	182.477463033537	2
0	1412	182.564560613724	3
0	1414	182.642203406476	4
0	1415	182.837694169706	3
0	1418	183.166347958954	4
0	1419	183.268096609259	3
0	1421	183.545692703672	2
0	1424	183.553769148706	3
0	1426	183.750797934679	4
0	1428	183.830303943079	5
0	1430	183.917403301371	6
0	1432	183.986696712083	7
0	1433	184.055709556895	6
0	1435	184.184570124591	5
0	1437	184.371701017473	4
0	1440	184.419165766798	5
0	1442	184.467564502952	6
0	1443	184.764376698746	5
0	1445	185.221288120593	4
0	1448	185.674572718206	5
0	1450	185.717881215429	6
0	1451	185.757465620046	5
0	1453	186.21606957655	4
0	1456	186.523547214989	5
0	1457	186.759875530131	4
0	1459	187.441268042182	3
0	1462	187.57186535175	4
0	1464	187.620925113064	5
0	1466	187.898754569643	6
0	1467	188.165435678312	5
0	1470	188.219241342275	6
0	1471	188.564461005372	5
0	1474	188.653226333284	6
0	1475	189.25448602553	5
0	1478	189.283046918596	6
0	1480	189.296767968811	7
0	1481	189.582206423148	6
0	1484	189.954029017853	7
0	1485	190.218267479665	6
0	1487	190.458287753384	5
0	1490	190.682309123641	6
0	1492	190.68721634184	7
0	1494	190.871507811645	8
0	1496	191.004054362348	9
0	1497	191.157909809365	8
0	1499	191.318448631777	7
0	1502	191.354067180406	8
0	1503	191.776587456683	7
0	1505	192.36757161979	6
0	1508	192.890604791799	7
0	1509	193.124350266051	6
0	1512	193.298614073781	7
0	1514	193.349890020283	8
0	1516	193.835895465814	9
0	1517	193.920741740833	8
0	1519	194.377965194858	7
0	1522	194.829865193236	8
0	1524	194.915634506922	9
0	1525	194.953716352103	8
0	1527	195.774483471863	7
0	1529	196.632206115393	6
0	1532	197.357384002095	7
0	1534	197.401800193422	8
0	1536	197.451410956664	9
0	1537	197.51424753036	8
0	1539	197.673661994269	7
0	1542	197.953436543603	8
0	1543	198.302560433732	7
0	1545	198.700994692497	6
0	1548	199.444326372266	7
0	1549	199.516518517152	6
0	1551	199.579231466387	5
0	1553	200.483215417933	4
0	1556	200.824628600108	5
0	1558	201.121169398771	6
0	1559	201.38725981278	5
0	1561	201.645943878439	4
0	1564	201.771588112501	5
0	1565	202.069976130255	4
0	1568	202.449447369426	5
0	1570	202.632799946323	6
0	1572	202.696586733222	7
0	1573	202.919014435947	6
0	1575	202.952319062302	5
0	1578	202.989971136562	6
0	1580	203.238575779733	7
0	1581	203.307687911891	6
0	1583	203.324016416666	5
0	1586	203.618058166857	6
0	1587	203.680723306478	5
0	1589	203.865955631004	4
0	1592	204.551378401947	5
0	1593	204.774799342488	4
0	1596	204.935609690643	5
0	1597	205.176058839529	4
0	1600	205.505749129103	5
0	1602	205.975500122035	6
0	1604	206.027335540356	7
0	1606	206.07560617987	8
0	1608	206.104402638279	9
0	1609	206.105350252927	8
0	1612	206.149656373353	9
0	1613	206.204965179075	8
0	1616	206.285018568722	9
0	1617	206.437709311244	8
0	1619	206.764410197955	7
0	1622	207.199789646651	8
0	1623	207.218572597007	7
0	1625	207.251647185988	6
0	1628	207.569249656621	7
0	1629	207.866111892729	6
0	1631	207.881717959872	5
0	1634	207.929072105465	6
0	1636	208.453743188428	7
0	1637	208.751206492993	6
0	1639	208.819280569197	5
0	1642	208.847022734374	6
0	1644	208.863524726902	7
0	1645	209.248076288251	6
0	1648	209.297455661846	7
0	1649	209.469237200206	6
0	1651	209.721178191237	5
0	1653	209.974369382242	4
0	1656	210.034666774238	5
0	1658	210.270650818124	6
0	1660	210.60832875321	7
0	1661	210.919670915686	6
0	1663	210.931707138883	5
0	1665	211.047191431735	4
0	1667	211.178246666434	3
0	1669	212.130121141196	2
0	1672	212.60711049157	3
0	1674	212.747398454659	4
0	1676	212.981859118295	5
0	1678	213.005226569163	6
0	1679	213.086526868156	5
0	1682	213.190807429564	6
0	1683	213.495580962383	5
0	1685	213.65853538596	4
0	1688	214.08127476701	5
0	1689	214.277015649704	4
0	1692	214.903866480547	5
0	1693	214.915777404317	4
0	1695	215.406082747261	3
0	1698	215.414725654252	4
0	1700	215.644239617996	5
0	1702	215.831770589555	6
0	1703	216.365065468698	5
0	1705	216.430369674917	4
0	1708	216.641101122765	5
0	1710	216.677626951342	6
0	1711	217.21360411331	5
0	1714	217.252958247807	6
0	1715	217.455022731553	5
0	1718	217.492564595049	6
0	1719	217.743421234646	5
0	1721	217.989484417941	4
0	1724	217.995031249579	5
0	1725	218.6519889885	4
0	1728	219.30285171579	5
0	1729	219.317848102646	4
0	1731	219.835156615814	3
0	1734	220.264721001124	4
0	1736	220.608977945146	5
0	1737	220.794323218744	4
0	1740	220.888141339778	5
0	1741	221.2184122058	4
0	1743	221.505463725412	3
0	1746	221.752701158619	4
0	1747	222.060151536707	3
0	1750	222.422839139609	4
0	1752	222.719167848577	5
0	1753	222.766726244232	4
0	1755	223.127271803553	3
0	1757	223.542128673746	2
0	1760	224.454490388845	3
0	1761	224.51638489076	2
0	1764	224.68010978809	3
0	1766	224.93347139504	4
0	1767	225.345041806568	3
0	1769	225.39104911754	2
0	1772	225.604481265631	3
0	1774	225.902567211329	4
0	1775	226.316016033749	3
0	1777	226.548643024397	2
0	1779	226.897162387838	1
0	1782	227.287139452748	2
0	1784	227.435826216702	3
0	1786	227.676265328854	4
0	1787	227.886572162613	3
0	1790	228.273510300608	4
0	1791	228.701538644025	3
0	1794	229.410363883952	4
0	1796	229.474883135544	5
0	1797	229.606486986151	4
0	1800	229.613119493816	5
0	1802	229.742675621757	6
0	1803	229.903043251943	5
0	1805	230.008949410396	4
0	1808	230.078867072776	5
0	1809	230.258369453477	4
0	1812	231.189474164376	5
0	1813	231.209322061848	4
0	1816	231.411141362377	5
0	1817	231.442742317442	4
0	1820	231.654400932256	5
0	1821	232.132510582909	4
0	1823	232.190866935059	3
0	1826	232.897216474429	4
0	1828	232.95763217256	5
0	1829	233.159838638726	4
0	1832	233.456281634643	5
0	1834	233.527533107468	6
0	1836	233.761930953288	7
0	1837	233.890547741429	6
0	1840	233.958011598099	7
0	1841	234.162984639165	6
0	1844	234.527909301431	7
0	1845	234.537280822164	6
0	1847	234.775088063898	5
0	1849	235.154144959748	4
0	1852	235.321587916277	5
0	1854	235.67211067094	6
0	1856	235.847771311711	7
0	1857	235.902933212221	6
0	1859	236.074786311705	5
0	1861	236.379254716207	4
0	1863	236.828546364317	3
0	1866	236.933384252388	4
0	1868	237.150216680075	5
0	1869	237.710266578468	4
0	1872	237.820667542371	5
0	1873	237.948008402009	4
0	1876	238.225914115962	5
0	1878	238.338435362893	6
0	1879	238.450397858387	5
0	1882	238.736046463547	6
0	1883	239.084395553675	5
0	1886	239.102659132886	6
0	1888	239.317115050772	7
0	1890	239.329579098636	8
0	1892	239.410150388049	9
0	1894	239.480846944415	10
0	1895	239.923584674476	9
0	1898	240.09620636993	10
0	1899	240.62315973592	9
0	1902	240.713546307957	10
0	1903	241.074981417498	9
0	1905	241.145851197178	8
0	1908	241.186597178584	9
0	1910	241.743826294442	10
0	1911	241.896616061209	9
0	1914	242.040491578572	10
0	1915	242.048970764028	9
0	1917	242.341764795119	8
0	1920	242.63598230527	9
0	1921	242.759251166824	8
0	1924	242.873652140091	9
0	1925	242.890540497135	8
0	1928	242.926350205047	9
0	1929	243.494658302506	8
0	1931	243.877466361029	7
0	1934	244.539008246905	8
0	1936	244.576604151487	9
0	1938	244.586348797963	10
0	1939	244.744755766578	9
0	1941	245.291640663277	8
0	1943	246.187026547957	7
0	1946	246.531803843167	8
0	1948	246.612168863451	9
0	1950	246.761845364922	10
0	1952	246.883218083602	11
0	1953	247.127236241465	10
0	1956	247.316864093017	11
0	1957	247.402059812089	10
0	1959	247.808793153837	9
0	1961	248.360871423958	8
0	1963	248.953101841957	7
0	1966	249.176568248467	8
0	1968	249.335988772673	9
0	1969	249.849862998576	8
0	1971	250.121515768339	7
0	1973	250.576959914752	6
0	1976	251.090520548175	7
0	1978	251.103434570388	8
0	1979	251.519543517372	7
0	1981	251.767956977701	6
0	1983	252.169670519876	5
0	1986	252.198257927667	6
0	1988	252.814802291276	7
0	1990	252.977510649857	8
0	1991	253.137465192462	7
0	1993	253.447846018002	6
0	1995	253.820880881502	5
0	1998	254.103757084893	6
0	2000	254.117197394648	7
0	2001	254.326747265869	6
0	2004	254.608461566009	7
0	2006	254.808359202248	8
0	2007	254.851717713514	7
0	2009	255.185225181274	6
0	2011	255.93582020024	5
0	2014	256.515821653464	6
0	2016	256.608129589917	7
0	2017	256.859978964777	6
0	2019	256.908669255433	5
0	2022	257.7668926212	6
0	2023	257.770987803341	5
0	2026	257.96708338693	6
0	2027	258.024630325838	5
0	2029	258.470765833269	4
0	2032	259.067248047152	5
0	2034	259.426430964758	6
0	2035	259.438731404246	5
0	2037	259.543359289636	4
0	2040	259.783748058447	5
0	2041	259.891835279056	4
0	2044	260.028302263757	5
0	2046	260.405908172637	6
0	2047	260.631932806448	5
0	2049	261.254317228907	4
0	2052	261.853466981148	5
0	2053	261.934831711223	4
0	2055	262.645360109388	3
0	2058	262.970286906697	4
0	2060	263.535515505854	5
0	2061	263.630851539775	4
0	2063	263.835775221923	3
0	2066	264.044992096392	4
0	2067	264.177473335519	3
0	2070	264.442428514425	4
0	2072	264.601625022453	5
0	2074	264.681867076132	6
0	2075	264.853715813944	5
0	2077	265.136415460838	4
0	2080	265.651891181071	5
0	2081	265.680093514958	4
0	2083	265.710328774985	3
0	2086	266.155897951313	4
0	2088	266.333980842095	5
0	2089	266.589563538779	4
0	2091	266.59744764142	3
0	2094	266.642277386357	4
0	2096	266.65469399023	5
0	2098	267.062990334654	6
0	2100	267.287034318842	7
0	2101	267.307784469559	6
0	2103	267.39727901364	5
0	2106	267.636324821882	6
0	2108	267.719722700943	7
0	2109	267.769958088168	6
0	2111	267.794271286571	5
0	2114	267.99685693765	6
0	2115	268.20021360949	5
0	2117	268.542824591737	4
0	2119	269.073361806333	3
0	2122	269.180002069574	4
0	2124	269.184276078897	5
0	2125	269.995473269833	4
0	2127	270.274541213404	3
0	2129	270.896772274742	2
0	2132	270.918972998285	3
0	2134	271.506008066682	4
0	2136	271.558364203397	5
0	2138	271.729451549205	6
0	2139	271.887117280852	5
0	2141	272.002820516931	4
0	2144	272.116709943172	5
0	2145	272.212570468424	4
0	2148	272.760655062727	5
0	2149	272.789710715175	4
0	2152	273.006875750916	5
0	2154	273.135668184087	6
0	2156	273.439024388709	7
0	2157	273.461667853402	6
0	2159	273.464371067699	5
0	2161	274.064763301279	4
0	2163	274.711959953181	3
0	2166	275.228275251628	4
0	2167	275.40722995926	3
0	2169	275.995969569071	2
0	2172	276.125611808627	3
0	2173	276.944830593413	2
0	2176	277.35693394333	3
0	2178	277.907168208569	4
0	2179	277.907600907602	3
0	2181	277.924472583218	2
0	2184	278.197672536299	3
0	2185	278.6209550118	2
0	2188	278.775409900672	3
0	2190	279.298322547065	4
0	2192	279.313088452647	5
0	2193	279.434633660356	4
0	2195	279.768598533461	3
0	2197	280.27840572525	2
0	2200	280.57303279957	3
0	2202	280.963975011122	4
0	2203	281.069245888611	3
0	2205	281.166488812996	2
0	2207	281.608524443341	1
0	2209	282.600535687517	0
0	2212	283.327172609553	1
0	2214	283.568699121685	2
0	2215	283.594936475616	1
0	2217	284.114888853386	0
0	2220	284.390375739288	1
0	2222	284.699401927858	2
0	2223	284.808845263433	1
0	2225	284.899730993195	0
0	2232	285.963432855174	1
0	2233	285.986427546601	0
0	2244	288.314341225564	1
0	2246	288.573455149616	2
0	2247	288.734193198459	1
0	2249	288.867654667778	0
0	2252	288.966796707346	1
0	2254	289.452821191586	2
0	2256	289.691320067058	3
0	2257	289.848234801164	2
0	2260	290.081904462052	3
0	2262	290.146343785073	4
0	2263	290.350955564838	3
0	2266	290.717151546833	4
0	2268	290.886372113242	5
0	2269	290.892336358393	4
0	2272	290.908335730305	5
0	2274	290.970040466059	6
0	2276	291.026305439248	7
0	2278	291.216560913529	8
0	2280	291.358097131453	9
0	2281	291.722233728582	8
0	2283	291.758267550806	7
0	2286	291.771760093255	8
0	2287	291.933039558197	7
0	2289	292.233068473714	6
0	2291	292.622203152936	5
0	2294	292.955878119756	6
0	2296	293.389755691226	7
0	2297	293.493988889812	6
0	2299	293.65445653287	5
0	2302	293.845328595261	6
0	2304	293.981261514548	7
0	2306	294.416069194967	8
0	2308	294.494905221382	9
0	2309	294.540761197761	8
0	2312	294.699363986005	9
0	2313	294.700991669979	8
0	2315	295.141255419778	7
0	2318	295.19048307821	8
0	2320	295.414647731516	9
0	2321	295.587649834419	8
0	2323	295.66413660588	7
0	2325	296.325254121174	6
0	2328	296.624173428595	7
0	2329	297.021717266024	6
0	2331	297.269116018743	5
0	2334	297.678063607797	6
0	2336	297.962781664732	7
0	2337	298.176991609701	6
0	2339	298.216607132538	5
0	2341	298.276551431122	4
0	2344	298.327285025423	5
0	2346	298.649147428349	6
0	2348	298.751040119453	7
0	2350	299.036293113491	8
0	2352	299.140144756597	9
0	2353	299.196334242199	8
0	2355	299.257412781084	7
0	2358	299.768142555984	8
0	2359	299.92999508775	7
0	2362	300.138268651691	8
0	2364	300.331515742713	9
0	2366	300.333067921117	10
0	2367	300.458935015911	9
0	2369	300.763381381595	8
0	2372	300.787853273553	9
0	2373	301.125570439111	8
0	2376	301.311449401299	9
0	2378	301.314050967703	10
0	2379	301.596219387913	9
0	2381	301.97446456466	8
0	2383	302.714348485303	7
0	2386	303.071040379178	8
0	2387	303.612410846242	7
0	2390	303.616163172409	8
0	2391	303.78706923321	7
0	2394	303.789627613986	8
0	2396	303.901427143153	9
0	2397	304.115057232167	8
0	2399	304.178264847334	7
0	2401	304.858613518608	6