version 3
run Net1-0-20221230-18:25:18-8268
attr configname Net1
attr datetime 20221230-18:25:18
attr datetimef 20221230-182518
attr experiment Net1
attr inifile omnetpp.ini
attr iterationvars ""
attr iterationvarsd ""
attr iterationvarsf ""
attr measurement ""
attr network Net
attr processid 8268
attr repetition 0
attr replication #0
attr resultdir results
attr runnumber 0
attr seedset 0
config description "rho 0.4"
config **.source*.avgInterArrivalTime 0.5s
config **.queue*.avgServiceTime 0.2s
config network Net
config sim-time-limit 1h
config cpu-time-limit 300s

vector 0 Net.queue1 qlen:vector ETV
attr interpolationmode sample-hold
attr recordingmode vector
attr title "queue length"
vector 1 Net.queue1 queueingTime:vector ETV
attr interpolationmode none
attr recordingmode vector
attr title "queueing time at dequeue"
attr unit s
vector 2 Net.queue1 responseTime:vector ETV
attr interpolationmode none
attr recordingmode vector
attr title "response time at end of service"
attr unit s
vector 3 Net.sink1 lifetime:vector ETV
attr interpolationmode none
attr recordingmode vector
attr title "lifetime of arrived msg"
attr unit s
vector 4 Net.sink1 arrivedMsg:vector ETV
attr interpolationmode none
attr recordingmode vector
attr title "number of arrived msg"
0	0	0	0
0	4	0.449280194242	1
0	6	1.379082300279	2
0	7	1.646440506913	1
0	10	2.354854968221	2
0	12	3.294336995322	3
0	13	3.454730618047	2
0	16	3.782840208519	3
0	18	4.02540429038	4
0	20	4.201983859949	5
0	22	4.231176194496	6
0	24	4.390354264917	7
0	26	4.715077439042	8
0	27	4.725695008412	7
0	30	5.551183039204	8
0	31	5.876019572373	7
0	34	5.878124322815	8
0	36	6.127560327323	9
0	38	7.03174495946	10
0	39	7.188781202305	9
0	42	7.237533957581	10
0	43	7.401889378438	9
0	45	7.663277269341	8
0	48	7.759840211735	9
0	50	7.989464280363	10
0	51	9.249962033937	9
0	53	9.310617231298	8
0	56	9.564549244701	9
0	58	9.640164671533	10
0	60	10.660610779489	11
0	61	10.945266763447	10
0	64	10.981465365828	11
0	66	11.788466403274	12
0	68	12.155948613869	13
0	69	12.649400454713	12
0	72	12.723918084724	13
0	74	13.361531935836	14
0	76	13.797692533357	15
0	77	14.03383854311	14
0	80	14.183109862591	15
0	81	14.388661814388	14
0	83	14.81872167089	13
0	86	14.893792202638	14
0	88	14.949765282954	15
0	90	15.27061263397	16
0	92	15.373714274985	17
0	94	16.041359367297	18
0	96	16.163383612665	19
0	98	16.236022626311	20
0	100	16.431908031649	21
0	102	16.512976276372	22
0	104	16.638697242409	23
0	105	16.738484721863	22
0	107	16.794854115927	21
0	110	16.882975767063	22
0	111	17.588520950172	21
0	114	18.04743245417	22
0	116	18.346305492579	23
0	118	18.821052784327	24
0	119	18.832506773528	23
0	121	19.911030479707	22
0	124	19.984228315174	23
0	126	20.036508928062	24
0	127	21.2221263377	23
0	129	21.402802737197	22
0	132	21.786615770289	23
0	134	22.316032836033	24
0	136	22.409745869042	25
0	138	22.631447883352	26
0	139	22.771253745072	25
0	141	23.158032640117	24
0	144	23.325969228248	25
0	145	23.789180325112	24
0	148	23.794000008134	25
0	150	23.990556286786	26
0	152	24.010147864993	27
0	154	24.513083367576	28
0	155	24.735465374077	27
0	157	25.826597694308	26
0	160	26.109556688603	27
0	162	26.638469895279	28
0	163	27.142402234488	27
0	166	27.142479517989	28
0	167	27.448536654935	27
0	169	27.932465188439	26
0	171	28.559095464182	25
0	174	29.822529693111	26
0	175	30.124640448718	25
0	178	30.258487619924	26
0	180	30.526019958466	27
0	182	30.847910459267	28
0	184	31.336342496302	29
0	186	31.542593111263	30
0	187	31.829942293699	29
0	190	32.10417726203	30
0	191	32.16106771119	29
0	194	32.294955183717	30
0	195	32.637976470637	29
0	198	33.048272850353	30
0	199	33.05252531916	29
0	201	33.642272389262	28
0	203	34.375549153426	27
0	206	34.541867796279	28
0	208	35.085002486718	29
0	210	35.091834775933	30
0	211	35.135423957371	29
0	213	35.426727770828	28
0	216	35.579385743011	29
0	218	36.139292925888	30
0	219	36.532903268002	29
0	221	36.821198471356	28
0	224	37.92608711206	29
0	225	38.220130789792	28
0	228	38.978747762456	29
0	230	39.335039559123	30
0	232	39.363703022335	31
0	234	39.663676465656	32
0	236	39.673771529729	33
0	237	39.930721117649	32
0	240	39.965210724162	33
0	241	40.048284484539	32
0	243	40.896705362946	31
0	246	41.910995785585	32
0	248	42.133705516545	33
0	249	42.302658957895	32
0	252	42.461528658727	33
0	253	42.663248651661	32
0	255	43.019431794528	31
0	258	43.044965422001	32
0	259	43.907852392411	31
0	262	44.107084020502	32
0	263	44.86180191231	31
0	266	45.359039912045	32
0	268	45.481237636086	33
0	270	45.897659394119	34
0	271	46.104590877425	33
0	273	46.297033380484	32
0	276	46.899279655373	33
0	278	47.254903623982	34
0	279	47.996837725863	33
0	282	48.49769480247	34
0	283	48.793006199179	33
0	285	49.074827717151	32
0	288	49.767847056449	33
0	290	49.811232297619	34
0	292	49.973902505384	35
0	294	49.978602880716	36
0	295	50.64457187592	35
0	298	50.902266706217	36
0	300	51.423157033307	37
0	301	51.600278740748	36
0	303	51.995672326767	35
0	306	52.343798269051	36
0	308	52.497557130932	37
0	310	52.75115719256	38
0	312	53.153555892461	39
0	314	53.243682018453	40
0	316	53.474547466475	41
0	318	53.55371821959	42
0	319	53.723511812276	41
0	321	53.737598258535	40
0	323	53.797920910175	39
0	326	53.975259735664	40
0	327	54.347495000576	39
0	330	54.583514062382	40
0	332	54.7536874315	41
0	334	55.03763950824	42
0	335	55.157518906518	41
0	338	55.743151712887	42
0	339	55.903778325766	41
0	342	55.995323616181	42
0	343	56.77199659869	41
0	346	57.127190404111	42
0	348	57.63651976912	43
0	349	58.500468606361	42
0	352	58.747273218357	43
0	353	59.169713498325	42
0	356	59.317077200123	43
0	358	59.615266897288	44
0	359	60.886469202814	43
0	362	61.53677018891	44
0	364	61.598533512591	45
0	365	62.227845338405	44
0	368	62.326942791873	45
0	370	62.592304040181	46
0	371	63.120156193384	45
0	374	63.154945048603	46
0	376	63.298650286638	47
0	378	63.486519707841	48
0	379	64.309673409908	47
0	382	65.168704934367	48
0	384	65.612635639585	49
0	385	66.053492037578	48
0	388	66.151553081653	49
0	390	66.532486967301	50
0	392	66.663515588139	51
0	394	66.914670987269	52
0	396	67.396897770016	53
0	398	67.718950124177	54
0	399	67.813030836637	53
0	401	67.870610438519	52
0	404	68.036513981992	53
0	406	68.666035740624	54
0	408	68.835868106915	55
0	410	69.07768595021	56
0	411	69.142175570362	55
0	414	69.769175553478	56
0	415	70.012408400186	55
0	418	70.822899355953	56
0	420	70.8771729052	57
0	421	70.917132848872	56
0	424	70.925634282488	57
0	426	71.144148289375	58
0	427	71.323555054607	57
0	430	71.545424282254	58
0	432	71.562525991433	59
0	433	72.218402038094	58
0	436	73.298793731074	59
0	438	73.492358777149	60
0	439	73.504708133869	59
0	442	73.617399524638	60
0	444	73.693546337265	61
0	446	73.744706644691	62
0	447	74.798963437321	61
0	450	75.813611524946	62
0	451	75.901649052276	61
0	454	75.964394481558	62
0	456	76.349432911331	63
0	458	76.646469660493	64
0	460	76.698910578293	65
0	462	76.916083406265	66
0	463	77.209243810269	65
0	466	77.232814715126	66
0	467	77.50992446998	65
0	470	78.152681107665	66
0	471	79.013897619209	65
0	474	79.32776975254	66
0	476	79.346911208982	67
0	477	79.462242533219	66
0	480	79.701870172594	67
0	482	79.793139473535	68
0	483	79.949721327283	67
0	485	80.321181274483	66
0	488	80.54805120134	67
0	490	81.549044449103	68
0	492	81.814045888171	69
0	494	81.889441393268	70
0	496	81.906334786044	71
0	497	82.031076009151	70
0	499	82.238576979841	69
0	501	83.460126872872	68
0	504	83.931258205446	69
0	506	84.164894488651	70
0	508	84.437323052723	71
0	510	84.463279328814	72
0	512	84.69073525121	73
0	514	84.699119134206	74
0	516	84.830283788789	75
0	517	85.167429105843	74
0	519	85.202571350381	73
0	522	85.554180829783	74
0	523	86.563199391121	73
0	526	86.996486705834	74
0	527	87.643133568343	73
0	530	87.689632381845	74
0	532	87.896938653175	75
0	534	88.233168911592	76
0	536	88.440158372928	77
0	538	88.539073126658	78
0	540	88.632832602259	79
0	542	88.944131274248	80
0	543	89.366109335793	79
0	545	89.421674718147	78
0	547	89.584688676286	77
0	550	89.982146804469	78
0	551	90.099577708866	77
0	553	90.699567285131	76
0	555	91.371341333256	75
0	558	91.424418948672	76
0	560	91.892988307534	77
0	562	92.346970321196	78
0	563	92.407396368912	77
0	565	92.502913140689	76
0	568	93.11238593433	77
0	570	93.458985819099	78
0	572	93.484827271997	79
0	573	94.066022949756	78
0	576	94.085312725268	79
0	577	94.560105419249	78
0	579	95.273783863985	77
0	582	96.524879169265	78
0	584	96.68036307175	79
0	585	97.005469619759	78
0	588	97.248661319379	79
0	590	98.247247303124	80
0	591	98.778087908632	79
0	594	98.942085835012	80
0	595	100.384986300484	79
0	598	100.611053001939	80
0	600	101.015043028639	81
0	602	101.134419465063	82
0	604	101.260218771619	83
0	606	101.383648406018	84
0	608	101.805137793725	85
0	610	102.105977286987	86
0	611	102.15471623372	85
0	613	102.713295249964	84
0	615	103.342826512174	83
0	618	103.863216627255	84
0	619	104.278661498797	83
0	622	104.433785578685	84
0	624	104.478362723683	85
0	626	104.507398904741	86
0	628	104.841955766586	87
0	629	104.960905386365	86
0	631	105.134992873759	85
0	633	105.898062322053	84
0	636	105.906290813852	85
0	637	106.833449952534	84
0	640	107.779638120765	85
0	641	108.028113154691	84
0	644	108.260357906551	85
0	646	108.651345766989	86
0	647	109.161368666446	85
0	649	109.235404852774	84
0	652	109.615525835429	85
0	653	109.774215885201	84
0	655	109.975964777633	83
0	658	110.296491697582	84
0	660	110.622107063541	85
0	662	111.187284836496	86
0	663	111.279214664358	85
0	666	111.654315002799	86
0	668	112.281416637844	87
0	670	112.598381647541	88
0	671	112.640305182892	87
0	674	112.90279810441	88
0	675	113.290996125895	87
0	678	114.087257189828	88
0	680	114.161055206274	89
0	682	114.291230912048	90
0	683	114.762372531458	89
0	685	114.824325545686	88
0	688	115.358012555785	89
0	689	115.614292679815	88
0	692	116.5319344365	89
0	693	116.574344114162	88
0	696	117.050859474245	89
0	698	117.247145988339	90
0	700	117.613829824923	91
0	702	117.613857500871	92
0	703	117.724735787831	91
0	706	117.800739147779	92
0	708	118.077824562303	93
0	710	119.16070640274	94
0	711	119.334473413875	93
0	714	119.730235228076	94
0	715	119.891381243471	93
0	718	120.03475753443	94
0	720	120.365009074305	95
0	721	120.712007343298	94
0	724	121.142340543209	95
0	726	121.272660607897	96
0	727	121.358530376567	95
0	730	122.334033934868	96
0	732	122.522248610629	97
0	733	123.12348172883	96
0	735	123.763417653502	95
0	738	124.100796381337	96
0	740	124.419890684133	97
0	741	124.525242589642	96
0	743	124.602230729996	95
0	746	125.041566073107	96
0	748	125.125003393723	97
0	750	125.780489577803	98
0	751	126.156832864037	97
0	754	126.300092396094	98
0	756	126.42105221848	99
0	758	126.524231215282	100
0	759	126.779243100196	99
0	762	127.348269301862	100
0	763	127.61212922539	99
0	766	128.035609278763	100
0	768	128.597339528537	101
0	769	128.734639161028	100
0	772	128.75943908528	101
0	774	128.855569805701	102
0	775	129.087234733388	101
0	778	129.465069478292	102
0	779	129.483439062484	101
0	782	129.776087937833	102
0	783	130.671618173825	101
0	786	130.693719639303	102
0	788	130.808341801906	103
0	790	130.898478951695	104
0	792	130.965149263331	105
0	794	131.60536144032	106
0	796	131.6208245861	107
0	797	131.945674569341	106
0	800	132.30799609331	107
0	802	132.356579932494	108
0	803	132.380217856955	107
0	806	132.479178978815	108
0	807	132.930057375686	107
0	810	133.170837211891	108
0	811	133.180324679933	107
0	814	133.828650341039	108
0	816	133.851994212861	109
0	818	133.969322137489	110
0	820	134.138399494911	111
0	821	134.247162885027	110
0	824	134.703858734505	111
0	826	134.736415166898	112
0	827	134.96964921662	111
0	829	135.018938110437	110
0	832	135.141985678012	111
0	834	135.146627190201	112
0	835	135.319819944206	111
0	838	136.041621992442	112
0	839	136.196262536331	111
0	841	137.586988804622	110
0	844	138.119607540224	111
0	846	138.727452776903	112
0	848	138.827673874446	113
0	849	139.051157658447	112
0	852	139.1867971145	113
0	853	139.243023455834	112
0	856	139.621079980233	113
0	857	140.088213768547	112
0	860	140.395585819811	113
0	862	140.861891747445	114
0	864	140.985099658551	115
0	866	141.288739302861	116
0	867	141.545096548965	115
0	869	142.240201425498	114
0	872	142.344183690052	115
0	874	142.68308469108	116
0	875	143.254678293589	115
0	878	143.311703188865	116
0	880	143.644624432183	117
0	882	144.261064663698	118
0	884	144.605781932622	119
0	885	144.806815627023	118
0	888	145.536497754113	119
0	890	145.64454586241	120
0	891	145.685876479132	119
0	894	146.386667103735	120
0	895	147.342453893499	119
0	897	147.382164463859	118
0	900	148.216495769117	119
0	901	149.078428386936	118
0	904	149.207870221419	119
0	906	149.965904686332	120
0	907	150.120128922157	119
0	909	150.564551502226	118
0	912	152.066834399456	119
0	913	152.31797971925	118
0	916	152.767172247936	119
0	918	152.769200408597	120
0	920	152.926199357629	121
0	922	153.19043297178	122
0	924	153.469936806775	123
0	926	153.646735094406	124
0	927	153.753090638893	123
0	930	153.903092415721	124
0	932	153.967382534359	125
0	933	154.163791461142	124
0	935	154.733335202553	123
0	937	155.406286274542	122
0	940	155.941199168139	123
0	942	156.201738578681	124
0	943	156.512040083756	123
0	946	156.6228067301	124
0	947	156.80557354213	123
0	950	156.833303379124	124
0	952	157.610950559301	125
0	954	157.875931348937	126
0	956	158.09850601864	127
0	957	158.297747644822	126
0	960	158.353501435565	127
0	962	158.533148388128	128
0	964	159.279464470224	129
0	965	159.297183113632	128
0	967	159.540487290819	127
0	969	160.237189715489	126
0	972	160.582750371384	127
0	974	160.779501576945	128
0	975	161.458913218689	127
0	977	161.619194751133	126
0	979	162.016657650231	125
0	982	162.306931466449	126
0	984	162.31395476207	127
0	986	162.695166604177	128
0	988	162.876787713628	129
0	989	163.550614597269	128
0	991	163.584896962617	127
0	994	163.948980445885	128
0	995	164.025736887467	127
0	998	164.093236801059	128
0	999	164.264303147786	127
0	1001	164.533112247235	126
0	1004	164.658926184861	127
0	1006	165.490409075198	128
0	1008	165.773356346015	129
0	1009	166.292342757101	128
0	1012	166.470790891647	129
0	1013	167.028444395161	128
0	1016	167.355600803252	129
0	1018	167.593840094551	130
0	1020	167.644607136522	131
0	1022	167.792558073146	132
0	1024	168.240722675656	133
0	1025	168.290062780485	132
0	1027	168.456185731098	131
0	1030	168.564310027678	132
0	1031	168.850634118535	131
0	1034	168.898961463671	132
0	1036	169.205681008467	133
0	1038	169.577472604355	134
0	1039	169.661617829224	133
0	1042	169.869184489873	134
0	1043	170.447972272981	133
0	1046	170.826605618694	134
0	1048	171.110690860565	135
0	1049	171.352768174598	134
0	1052	171.987548183077	135
0	1053	172.203324720023	134
0	1056	172.343552215889	135
0	1058	172.38872083793	136
0	1059	172.746777608517	135
0	1061	172.917321827255	134
0	1064	172.92818429218	135
0	1066	173.043894778158	136
0	1068	173.983453995263	137
0	1069	174.057102681363	136
0	1072	174.555299305556	137
0	1074	174.653530248504	138
0	1076	174.689739803561	139
0	1078	174.694607508231	140
0	1079	175.425524373531	139
0	1082	175.807649502952	140
0	1084	175.879276013643	141
0	1085	176.203792070264	140
0	1088	176.634506814255	141
0	1089	176.794954903184	140
0	1091	177.613420594011	139
0	1094	177.930731118647	140
0	1096	178.558677860817	141
0	1097	178.725978994269	140
0	1099	178.859815886237	139
0	1102	178.896153347644	140
0	1104	179.21311941089	141
0	1105	179.98125530476	140
0	1107	180.212124636623	139
0	1110	180.284669261105	140
0	1112	180.619785199393	141
0	1114	180.88748737494	142
0	1116	180.983135397889	143
0	1118	181.305589643472	144
0	1119	181.5916922728	143
0	1121	181.69777958141	142
0	1124	182.071013852944	143
0	1126	182.477463033537	144
0	1128	182.564560613724	145
0	1129	182.6182098824	144
0	1132	182.642203406476	145
0	1134	183.166347958954	146
0	1136	183.553769148706	147
0	1138	183.750797934679	148
0	1140	183.830303943079	149
0	1141	183.90941720106	148
0	1144	183.917403301371	149
0	1146	183.986696712083	150
0	1147	184.295998904149	149
0	1150	184.419165766798	150
0	1152	184.467564502952	151
0	1153	184.857391582795	150
0	1156	185.674572718206	151
0	1157	185.690179866033	150
0	1160	185.717881215429	151
0	1162	186.523547214989	152
0	1163	186.868206909851	151
0	1166	187.57186535175	152
0	1168	187.620925113064	153
0	1170	187.898754569643	154
0	1172	188.219241342275	155
0	1173	188.238941175391	154
0	1176	188.653226333284	155
0	1178	189.283046918596	156
0	1180	189.296767968811	157
0	1181	189.436017156572	156
0	1184	189.954029017853	157
0	1185	190.419178349425	156
0	1188	190.682309123641	157
0	1190	190.68721634184	158
0	1192	190.871507811645	159
0	1194	191.004054362348	160
0	1195	191.139239170582	159
0	1198	191.354067180406	160
0	1199	191.620855637819	159
0	1202	192.890604791799	160
0	1203	192.995272112538	159
0	1206	193.298614073781	160
0	1208	193.349890020283	161
0	1210	193.835895465814	162
0	1211	194.371083982049	161
0	1214	194.829865193236	162
0	1216	194.915634506922	163
0	1217	195.742754344123	162
0	1219	197.272804903791	161
0	1222	197.357384002095	162
0	1224	197.401800193422	163
0	1226	197.451410956664	164
0	1228	197.953436543603	165
0	1229	198.829310346621	164
0	1231	199.307553738349	163
0	1234	199.444326372266	164
0	1235	200.502856514643	163
0	1237	200.690995362348	162
0	1240	200.824628600108	163
0	1242	201.121169398771	164
0	1244	201.771588112501	165
0	1245	202.299527860706	164
0	1248	202.449447369426	165
0	1250	202.632799946323	166
0	1252	202.696586733222	167
0	1254	202.989971136562	168
0	1255	203.075580057682	167
0	1257	203.175493936747	166
0	1260	203.238575779733	167
0	1262	203.618058166857	168
0	1263	204.241600485513	167
0	1265	204.290585999837	166
0	1268	204.551378401947	167
0	1269	204.846282973414	166
0	1272	204.935609690643	167
0	1274	205.505749129103	168
0	1275	205.91640364285	167
0	1278	205.975500122035	168
0	1280	206.027335540356	169
0	1282	206.07560617987	170
0	1284	206.104402638279	171
0	1286	206.149656373353	172
0	1287	206.215248421295	171
0	1290	206.285018568722	172
0	1291	206.913480817801	171
0	1294	207.199789646651	172
0	1296	207.569249656621	173
0	1297	207.893583477935	172
0	1300	207.929072105465	173
0	1301	207.940401679365	172
0	1303	208.039625446307	171
0	1306	208.453743188428	172
0	1308	208.847022734374	173
0	1310	208.863524726902	174
0	1311	209.24340393743	173
0	1314	209.297455661846	174
0	1315	209.447626166041	173
0	1318	210.034666774238	174
0	1319	210.111108901906	173
0	1322	210.270650818124	174
0	1323	210.504274606002	173
0	1325	210.540383275594	172
0	1328	210.60832875321	173
0	1329	211.296206248687	172
0	1331	211.642659127242	171
0	1333	212.402232700256	170
0	1336	212.60711049157	171
0	1338	212.747398454659	172
0	1340	212.981859118295	173
0	1342	213.005226569163	174
0	1344	213.190807429564	175
0	1345	213.674329455705	174
0	1348	214.08127476701	175
0	1349	214.163192726435	174
0	1352	214.903866480547	175
0	1353	215.390355009116	174
0	1356	215.414725654252	175
0	1358	215.644239617996	176
0	1360	215.831770589555	177
0	1362	216.641101122765	178
0	1363	216.676742166277	177
0	1366	216.677626951342	178
0	1367	216.872654784933	177
0	1370	217.252958247807	178
0	1372	217.492564595049	179
0	1373	217.596910639663	178
0	1376	217.995031249579	179
0	1377	218.335100189547	178
0	1379	219.200295698826	177
0	1382	219.30285171579	178
0	1384	220.264721001124	179
0	1385	220.562782895981	178
0	1388	220.608977945146	179
0	1390	220.888141339778	180
0	1392	221.752701158619	181
0	1393	221.835049857149	180
0	1396	222.422839139609	181
0	1397	222.696204415985	180
0	1400	222.719167848577	181
0	1401	223.940775026564	180
0	1404	224.454490388845	181
0	1406	224.68010978809	182
0	1408	224.93347139504	183
0	1409	225.022411704526	182
0	1411	225.160433637441	181
0	1414	225.604481265631	182
0	1416	225.902567211329	183
0	1417	226.631349666274	182
0	1420	227.287139452748	183
0	1421	227.329230638218	182
0	1424	227.435826216702	183
0	1426	227.676265328854	184
0	1428	228.273510300608	185
0	1429	228.37478872854	184
0	1432	229.410363883952	185
0	1434	229.474883135544	186
0	1436	229.613119493816	187
0	1438	229.742675621757	188
0	1439	229.926714268045	187
0	1442	230.078867072776	188
0	1443	230.244432743404	187
0	1445	230.992692872647	186
0	1448	231.189474164376	187
0	1450	231.411141362377	188
0	1452	231.654400932256	189
0	1453	231.882361670023	188
0	1455	232.057430726474	187
0	1457	232.757691493256	186
0	1460	232.897216474429	187
0	1462	232.95763217256	188
0	1464	233.456281634643	189
0	1466	233.527533107468	190
0	1468	233.761930953288	191
0	1470	233.958011598099	192
0	1471	234.389109353999	191
0	1474	234.527909301431	192
0	1475	235.206420047207	191
0	1478	235.321587916277	192
0	1480	235.67211067094	193
0	1482	235.847771311711	194
0	1483	235.919841772409	193
0	1485	236.435401070861	192
0	1488	236.933384252388	193
0	1490	237.150216680075	194
0	1491	237.348806284366	193
0	1494	237.820667542371	194
0	1495	238.062031754989	193
0	1498	238.225914115962	194
0	1500	238.338435362893	195
0	1502	238.736046463547	196
0	1504	239.102659132886	197
0	1505	239.184920303987	196
0	1508	239.317115050772	197
0	1510	239.329579098636	198
0	1512	239.410150388049	199
0	1514	239.480846944415	200
0	1516	240.09620636993	201
0	1517	240.322090991538	200
0	1520	240.713546307957	201
0	1522	241.186597178584	202
0	1523	241.669965935869	201
0	1526	241.743826294442	202
0	1527	241.882575274909	201
0	1530	242.040491578572	202
0	1531	242.339639383366	201
0	1534	242.63598230527	202
0	1536	242.873652140091	203
0	1538	242.926350205047	204
0	1539	243.218021476639	203
0	1541	243.611889467572	202
0	1544	244.539008246905	203
0	1546	244.576604151487	204
0	1548	244.586348797963	205
0	1549	244.76031364314	204
0	1551	246.012772758256	203
0	1554	246.531803843167	204
0	1556	246.612168863451	205
0	1558	246.761845364922	206
0	1560	246.883218083602	207
0	1562	247.316864093017	208
0	1563	247.368237802989	207
0	1565	248.192708514861	206
0	1568	249.176568248467	207
0	1570	249.335988772673	208
0	1571	249.412908540105	207
0	1573	250.227866849394	206
0	1576	251.090520548175	207
0	1578	251.103434570388	208
0	1579	251.594199288634	207
0	1582	252.198257927667	208
0	1583	252.339439669622	207
0	1586	252.814802291276	208
0	1588	252.977510649857	209
0	1589	253.544580296146	208
0	1592	254.103757084893	209
0	1594	254.117197394648	210
0	1595	254.475722772766	209
0	1598	254.608461566009	210
0	1600	254.808359202248	211
0	1601	255.594827363266	210
0	1604	256.515821653464	211
0	1605	256.595349766545	210
0	1608	256.608129589917	211
0	1610	257.7668926212	212
0	1612	257.96708338693	213
0	1613	258.10251813568	212
0	1615	258.248589007648	211
0	1617	259.009516575139	210
0	1620	259.067248047152	211
0	1622	259.426430964758	212
0	1624	259.783748058447	213
0	1626	260.028302263757	214
0	1627	260.347923097432	213
0	1630	260.405908172637	214
0	1631	260.661806753602	213
0	1633	261.707234721862	212
0	1636	261.853466981148	213
0	1638	262.970286906697	214
0	1639	263.224833874962	213
0	1642	263.535515505854	214
0	1643	263.839604921405	213
0	1646	264.044992096392	214
0	1648	264.442428514425	215
0	1650	264.601625022453	216
0	1652	264.681867076132	217
0	1653	264.864699262193	216
0	1656	265.651891181071	217
0	1657	265.712798202875	216
0	1659	265.803503982955	215
0	1662	266.155897951313	216
0	1664	266.333980842095	217
0	1666	266.642277386357	218
0	1668	266.65469399023	219
0	1670	267.062990334654	220
0	1672	267.287034318842	221
0	1673	267.378415325889	220
0	1675	267.402067633811	219
0	1678	267.636324821882	220
0	1679	267.670551266055	219
0	1682	267.719722700943	220
0	1684	267.99685693765	221
0	1685	268.788588489638	220
0	1687	268.861528084846	219
0	1690	269.180002069574	220
0	1692	269.184276078897	221
0	1693	269.889361031586	220
0	1695	270.726564862299	219
0	1698	270.918972998285	220
0	1700	271.506008066682	221
0	1702	271.558364203397	222
0	1704	271.729451549205	223
0	1705	271.944391831056	222
0	1708	272.116709943172	223
0	1709	272.291501539293	222
0	1712	272.760655062727	223
0	1713	272.920751393772	222
0	1716	273.006875750916	223
0	1718	273.135668184087	224
0	1720	273.439024388709	225
0	1721	274.512363037559	224
0	1723	274.52047268045	223
0	1726	275.228275251628	224
0	1728	276.125611808627	225
0	1729	276.151506842811	224
0	1732	277.35693394333	225
0	1733	277.792161532909	224
0	1735	277.842776559757	223
0	1738	277.907168208569	224
0	1740	278.197672536299	225
0	1742	278.775409900672	226
0	1744	279.298322547065	227
0	1746	279.313088452647	228
0	1747	279.499011370119	227
0	1749	280.500905989435	226
0	1752	280.57303279957	227
0	1754	280.963975011122	228
0	1755	282.030327564802	227
0	1757	282.322056337956	226
0	1760	283.327172609553	227
0	1762	283.568699121685	228
0	1763	283.648163228992	227
0	1766	284.390375739288	228
0	1768	284.699401927858	229
0	1769	285.208020362302	228
0	1771	285.480677551587	227
0	1774	285.576125986996	228
0	1776	285.963432855174	229
0	1777	286.163956050991	228
0	1780	287.054789799817	229
0	1781	287.394860729805	228
0	1784	288.11536702824	229
0	1786	288.314341225564	230
0	1788	288.573455149616	231
0	1790	288.966796707346	232
0	1791	289.058924163689	231
0	1794	289.452821191586	232
0	1795	289.459308571645	231
0	1798	289.691320067058	232
0	1800	290.081904462052	233
0	1802	290.146343785073	234
0	1804	290.717151546833	235
0	1806	290.886372113242	236
0	1808	290.908335730305	237
0	1809	290.967470862667	236
0	1812	290.970040466059	237
0	1814	291.026305439248	238
0	1816	291.216560913529	239
0	1818	291.358097131453	240
0	1820	291.771760093255	241
0	1821	292.591613243331	240
0	1823	292.699714710002	239
0	1826	292.955878119756	240
0	1827	293.224030732175	239
0	1830	293.389755691226	240
0	1831	293.705433661349	239
0	1834	293.845328595261	240
0	1836	293.981261514548	241
0	1838	294.416069194967	242
0	1840	294.494905221382	243
0	1841	294.6055204079	242
0	1844	294.699363986005	243
0	1845	295.086211824555	242
0	1848	295.19048307821	243
0	1850	295.414647731516	244
0	1851	296.253615862222	243
0	1853	296.483076176604	242
0	1856	296.624173428595	243
0	1858	297.678063607797	244
0	1859	297.803867426	243
0	1861	297.922713994512	242
0	1864	297.962781664732	243
0	1866	298.327285025423	244
0	1868	298.649147428349	245
0	1869	298.664910252669	244
0	1872	298.751040119453	245
0	1873	298.844743148421	244
0	1875	299.027978765077	243
0	1878	299.036293113491	244
0	1880	299.140144756597	245
0	1882	299.768142555984	246
0	1884	300.138268651691	247
0	1886	300.331515742713	248
0	1888	300.333067921117	249
0	1889	300.367162009	248
0	1892	300.787853273553	249
0	1893	301.280501106053	248
0	1896	301.311449401299	249
0	1898	301.314050967703	250
0	1899	302.367068278601	249
0	1902	303.071040379178	250
0	1903	303.501803808843	249
0	1906	303.616163172409	250
0	1908	303.789627613986	251
0	1910	303.901427143153	252
0	1911	304.025778969747	251
0	1913	304.215401815248	250
0	1915	305.199365812118	249
0	1918	305.201263765826	250
0	1920	305.386253355701	251
0	1922	305.644355083169	252
0	1924	306.145636287333	253
0	1925	306.611312658523	252
0	1928	307.2522499031	253
0	1929	307.326552484182	252
0	1932	307.535600883025	253
0	1933	308.178552421972	252
0	1936	308.852666580997	253
0	1937	309.282335161695	252
0	1940	309.30100949929	253
0	1942	309.583637139946	254
0	1944	310.032838323164	255
0	1946	310.251708051221	256
0	1947	310.651894837616	255
0	1950	310.786749296035	256
0	1951	310.94230669434	255
0	1954	311.314969793126	256
0	1955	311.342624987241	255
0	1958	312.17716573586	256
0	1959	312.355057126375	255
0	1962	312.434889510864	256
0	1964	312.45403390975	257
0	1965	313.385232303755	256
0	1968	314.541755711864	257
0	1969	314.577002565374	256
0	1972	314.838988720213	257
0	1973	315.6326815607	256
0	1976	316.226366031003	257
0	1978	316.783799458038	258
0	1980	316.93889751967	259
0	1981	317.065621075683	258
0	1984	317.354027843053	259
0	1985	318.609159302895	258
0	1988	318.926526619405	259
0	1990	318.98675575329	260
0	1992	319.145640423981	261
0	1994	319.188450821036	262
0	1996	319.913111755774	263
0	1998	319.924075446119	264
0	2000	319.997891387735	265
0	2002	320.14886888948	266
0	2003	320.195979087378	265
0	2005	320.38388710655	264
0	2007	320.826943840829	263
0	2010	321.173160467779	264
0	2012	321.27202635175	265
0	2013	321.552648956652	264
0	2016	321.55597019831	265
0	2018	321.752578841805	266
0	2020	322.19039824085	267
0	2021	322.559143481308	266
0	2023	322.880155896533	265
0	2025	323.232117345787	264
0	2028	323.568504779589	265
0	2029	324.528961794681	264
0	2032	324.981766764871	265
0	2034	325.00873524308	266
0	2036	325.462166796733	267
0	2037	326.094950603784	266
0	2040	326.574058204608	267
0	2042	327.333242778807	268
0	2044	327.45207571436	269
0	2045	327.767056963404	268
0	2048	328.176148776335	269
0	2049	328.210482977794	268
0	2052	328.280931019198	269
0	2053	329.351488538317	268
0	2056	329.426059629148	269
0	2058	329.430545322815	270
0	2060	329.477828691065	271
0	2062	329.960546590913	272
0	2064	330.201536195693	273
0	2066	330.252310580983	274
0	2067	330.550893610108	273
0	2069	330.842667607122	272
0	2071	331.349743815369	271
0	2073	332.074414935426	270
0	2076	332.349944891044	271
0	2078	333.484429434356	272
0	2079	333.567745647856	271
0	2082	333.642547987277	272
0	2083	333.743350414789	271
0	2086	333.963005698875	272
0	2088	334.289732328738	273
0	2090	334.644767501566	274
0	2091	335.155213118761	273
0	2093	335.502715128704	272
0	2096	336.354335752909	273
0	2098	336.40699296251	274
0	2100	336.42722194034	275
0	2102	336.757761840755	276
0	2103	336.873891402732	275
0	2106	337.064245475096	276
0	2108	337.198357021732	277
0	2109	337.225838102631	276
0	2112	337.228694171819	277
0	2114	337.294799971733	278
0	2115	338.039594333151	277
0	2118	338.266400249896	278
0	2120	338.521535948775	279
0	2122	338.761681855679	280
0	2124	338.772791181688	281
0	2126	339.007595197752	282
0	2127	339.07374869962	281
0	2130	339.549369291899	282
0	2132	340.040261744699	283
0	2133	340.271232137687	282
0	2135	340.481358703922	281
0	2138	341.266914665451	282
0	2139	341.680795129619	281
0	2142	341.823972033684	282
0	2144	342.019814303625	283
0	2146	342.209873819294	284
0	2147	342.892173361031	283
0	2150	343.105700987237	284
0	2151	343.223604692842	283